
     Program PWSCF v.5.4.0 starts on 26Apr2017 at 14:12: 0 

     This program is part of the open-source Quantum ESPRESSO suite
     for quantum simulation of materials; please cite
         "P. Giannozzi et al., J. Phys.:Condens. Matter 21 395502 (2009);
          URL http://www.quantum-espresso.org", 
     in publications or presentations arising from this work. More details at
     http://www.quantum-espresso.org/quote

     Parallel version (MPI), running on    24 processors
     R & G space division:  proc/nbgrp/npool/nimage =      24
     Waiting for input...
     Reading input from standard input
Warning: card &CELL ignored
Warning: card  CELL_DYNAMICS = 'BFGS', ignored
Warning: card  PRESS=0.1D0, ignored
Warning: card / ignored

     Current dimensions of program PWSCF are:
     Max number of different atomic species (ntypx) = 10
     Max number of k-points (npk) =  40000
     Max angular momentum in pseudopotentials (lmaxx) =  3

     Subspace diagonalization in iterative solution of the eigenvalue problem:
     a serial algorithm will be used

 
     Parallelization info
     --------------------
     sticks:   dense  smooth     PW     G-vecs:    dense   smooth      PW
     Min         302     121     32                64272    16243    2260
     Max         303     122     33                64287    16271    2275
     Sum        7267    2905    769              1542757   390237   54333
 


     bravais-lattice index     =            4
     lattice parameter (alat)  =      12.2747  a.u.
     unit-cell volume          =    4931.5212 (a.u.)^3
     number of atoms/cell      =           12
     number of atomic types    =            3
     number of electrons       =       103.00
     number of Kohn-Sham states=           62
     kinetic-energy cutoff     =      70.0000  Ry
     charge density cutoff     =     700.0000  Ry
     convergence threshold     =      1.0E-08
     mixing beta               =       0.7000
     number of iterations used =            8  plain     mixing
     Exchange-correlation      = SLA  PZ   NOGX NOGC ( 1  1  0  0 0 0)
     nstep                     =           50


     celldm(1)=  12.274692  celldm(2)=   0.000000  celldm(3)=   3.079062
     celldm(4)=   0.000000  celldm(5)=   0.000000  celldm(6)=   0.000000

     crystal axes: (cart. coord. in units of alat)
               a(1) = (   1.000000   0.000000   0.000000 )  
               a(2) = (  -0.500000   0.866025   0.000000 )  
               a(3) = (   0.000000   0.000000   3.079062 )  

     reciprocal axes: (cart. coord. in units 2 pi/alat)
               b(1) = (  1.000000  0.577350  0.000000 )  
               b(2) = (  0.000000  1.154701  0.000000 )  
               b(3) = (  0.000000  0.000000  0.324774 )  


     PseudoPot. # 1 for Mo read from file:
     /afs/crc.nd.edu/user/j/jencomen/espresso/pseudo/Mo_LDA.UPF
     MD5 check sum: f5ddb34c5c8cdf9395e9f47ee8c17b30
     Pseudo is Ultrasoft + core correction, Zval = 14.0
     Generated by new atomic code, or converted to UPF format
     Using radial grid of  889 points,  6 beta functions with: 
                l(1) =   0
                l(2) =   0
                l(3) =   1
                l(4) =   1
                l(5) =   2
                l(6) =   2
     Q(r) pseudized with  6 coefficients,  rinner =    1.000   1.000   1.000
                                                       1.000   1.000

     PseudoPot. # 2 for Se read from file:
     /afs/crc.nd.edu/user/j/jencomen/espresso/pseudo/Se_LDA.UPF
     MD5 check sum: 29da00cbf48820a058e3666752a4b224
     Pseudo is Ultrasoft + core correction, Zval =  6.0
     Generated by new atomic code, or converted to UPF format
     Using radial grid of  877 points,  6 beta functions with: 
                l(1) =   0
                l(2) =   0
                l(3) =   1
                l(4) =   1
                l(5) =   2
                l(6) =   2
     Q(r) pseudized with  8 coefficients,  rinner =    1.300   1.300   1.300
                                                       1.300   1.300

     PseudoPot. # 3 for Nb read from file:
     /afs/crc.nd.edu/user/j/jencomen/espresso/pseudo/Nb_LDA.UPF
     MD5 check sum: a8e7b7b0ee98cbdca7616d96bb3e760c
     Pseudo is Ultrasoft + core correction, Zval = 13.0
     Generated by new atomic code, or converted to UPF format
     Using radial grid of  887 points,  6 beta functions with: 
                l(1) =   0
                l(2) =   0
                l(3) =   1
                l(4) =   1
                l(5) =   2
                l(6) =   2
     Q(r) pseudized with  6 coefficients,  rinner =    1.000   1.000   1.000
                                                       1.000   1.000

     atomic species   valence    mass     pseudopotential
        Mo            14.00    95.95000     Mo( 1.00)
        Se             6.00    78.97100     Se( 1.00)
        Nb            13.00    92.90600     Nb( 1.00)

      6 Sym. Ops. (no inversion) found ( 4 have fractional translation)



   Cartesian axes

     site n.     atom                  positions (alat units)
         1           Nb  tau(   1) = (   0.0000000   0.2886750   0.4901723  )
         2           Mo  tau(   2) = (  -0.2499999   0.7216875   0.4901723  )
         3           Mo  tau(   3) = (   0.4999997   0.2886750   0.4901723  )
         4           Mo  tau(   4) = (   0.2499999   0.7216875   0.4901723  )
         5           Se  tau(   5) = (   0.2499999   0.1443374   0.7431011  )
         6           Se  tau(   6) = (   0.0000000   0.5773499   0.7431011  )
         7           Se  tau(   7) = (   0.7499996   0.1443374   0.7431011  )
         8           Se  tau(   8) = (   0.4999997   0.5773499   0.7431011  )
         9           Se  tau(   9) = (   0.2499999   0.1443374   0.2372435  )
        10           Se  tau(  10) = (   0.0000000   0.5773499   0.2372435  )
        11           Se  tau(  11) = (   0.7499996   0.1443374   0.2372435  )
        12           Se  tau(  12) = (   0.4999997   0.5773499   0.2372435  )

     number of k points=    14  gaussian smearing, width (Ry)=  0.0100
                       cart. coord. in units 2pi/alat
        k(    1) = (   0.0000000   0.0000000   0.0000000), wk =   0.0200000
        k(    2) = (   0.0000000   0.1154701   0.0000000), wk =   0.1200000
        k(    3) = (   0.0000000   0.2309401   0.0000000), wk =   0.1200000
        k(    4) = (   0.0000000   0.3464102   0.0000000), wk =   0.1200000
        k(    5) = (   0.0000000   0.4618802   0.0000000), wk =   0.1200000
        k(    6) = (   0.0000000  -0.5773503   0.0000000), wk =   0.0600000
        k(    7) = (   0.1000000   0.1732051   0.0000000), wk =   0.1200000
        k(    8) = (   0.1000000   0.2886751   0.0000000), wk =   0.2400000
        k(    9) = (   0.1000000   0.4041452   0.0000000), wk =   0.2400000
        k(   10) = (   0.1000000   0.5196152   0.0000000), wk =   0.2400000
        k(   11) = (   0.2000000   0.3464102   0.0000000), wk =   0.1200000
        k(   12) = (   0.2000000   0.4618802   0.0000000), wk =   0.2400000
        k(   13) = (   0.2000000   0.5773503   0.0000000), wk =   0.1200000
        k(   14) = (   0.3000000   0.5196152   0.0000000), wk =   0.1200000

     Dense  grid:  1542757 G-vectors     FFT dimensions: ( 108, 108, 320)

     Smooth grid:   390237 G-vectors     FFT dimensions: (  72,  72, 216)

     Largest allocated arrays     est. size (Mb)     dimensions
        Kohn-Sham Wavefunctions         1.95 Mb     (    2064,   62)
        NL pseudopotentials             6.80 Mb     (    2064,  216)
        Each V/rho on FFT grid          2.49 Mb     (  163296)
        Each G-vector array             0.49 Mb     (   64287)
        G-vector shells                 0.20 Mb     (   26242)
     Largest temporary arrays     est. size (Mb)     dimensions
        Each subspace H/S matrix        0.06 Mb     (      62,   62)
        Each <psi_i|beta_j> matrix      0.20 Mb     (     216,   62)
        Arrays for rho mixing          19.93 Mb     (  163296,    8)

     Initial potential from superposition of free atoms
     Check: negative starting charge=   -0.001188

     starting charge  102.99480, renormalised to  103.00000

     negative rho (up, down):  1.188E-03 0.000E+00
     Starting wfc are   84 randomized atomic wfcs

     total cpu time spent up to now is        9.4 secs

     per-process dynamical memory:   104.3 Mb

     Self-consistent Calculation

     iteration #  1     ecut=    70.00 Ry     beta=0.70
     CG style diagonalization
     ethr =  1.00E-02,  avg # of iterations =  2.6

     negative rho (up, down):  2.254E-05 0.000E+00

     total cpu time spent up to now is       64.6 secs

     total energy              =    -881.97435688 Ry
     Harris-Foulkes estimate   =    -882.89435323 Ry
     estimated scf accuracy    <       1.14852365 Ry

     iteration #  2     ecut=    70.00 Ry     beta=0.70
     CG style diagonalization
     ethr =  1.12E-03,  avg # of iterations =  5.1

     negative rho (up, down):  1.346E-05 0.000E+00

     total cpu time spent up to now is      159.3 secs

     total energy              =    -880.86461524 Ry
     Harris-Foulkes estimate   =    -884.70621424 Ry
     estimated scf accuracy    <      15.21537457 Ry

     iteration #  3     ecut=    70.00 Ry     beta=0.70
     CG style diagonalization
     ethr =  1.12E-03,  avg # of iterations =  4.5

     negative rho (up, down):  2.105E-05 0.000E+00

     total cpu time spent up to now is      236.3 secs

     total energy              =    -882.62265444 Ry
     Harris-Foulkes estimate   =    -882.69465941 Ry
     estimated scf accuracy    <       0.13277096 Ry

     iteration #  4     ecut=    70.00 Ry     beta=0.70
     CG style diagonalization
     c_bands:  1 eigenvalues not converged
     ethr =  1.29E-04,  avg # of iterations =  4.5

     negative rho (up, down):  1.625E-05 0.000E+00

     total cpu time spent up to now is      312.5 secs

     total energy              =    -882.67763021 Ry
     Harris-Foulkes estimate   =    -882.75711385 Ry
     estimated scf accuracy    <       0.31904674 Ry

     iteration #  5     ecut=    70.00 Ry     beta=0.70
     CG style diagonalization
     c_bands:  1 eigenvalues not converged
     ethr =  1.29E-04,  avg # of iterations =  3.5

     negative rho (up, down):  4.950E-05 0.000E+00

     total cpu time spent up to now is      370.4 secs

     total energy              =    -882.70863546 Ry
     Harris-Foulkes estimate   =    -882.71393165 Ry
     estimated scf accuracy    <       0.02112812 Ry

     iteration #  6     ecut=    70.00 Ry     beta=0.70
     CG style diagonalization
     c_bands:  1 eigenvalues not converged
     ethr =  2.05E-05,  avg # of iterations =  3.8

     negative rho (up, down):  9.637E-05 0.000E+00

     total cpu time spent up to now is      433.7 secs

     total energy              =    -882.71188880 Ry
     Harris-Foulkes estimate   =    -882.71295269 Ry
     estimated scf accuracy    <       0.00258540 Ry

     iteration #  7     ecut=    70.00 Ry     beta=0.70
     CG style diagonalization
     c_bands:  1 eigenvalues not converged
     c_bands:  1 eigenvalues not converged
     c_bands:  2 eigenvalues not converged
     ethr =  2.51E-06,  avg # of iterations =  4.4

     negative rho (up, down):  1.093E-04 0.000E+00

     total cpu time spent up to now is      509.0 secs

     total energy              =    -882.71266596 Ry
     Harris-Foulkes estimate   =    -882.71286844 Ry
     estimated scf accuracy    <       0.00095077 Ry

     iteration #  8     ecut=    70.00 Ry     beta=0.70
     CG style diagonalization
     c_bands:  1 eigenvalues not converged
     ethr =  9.23E-07,  avg # of iterations =  3.5

     negative rho (up, down):  1.171E-04 0.000E+00

     total cpu time spent up to now is      567.3 secs

     total energy              =    -882.71273524 Ry
     Harris-Foulkes estimate   =    -882.71286463 Ry
     estimated scf accuracy    <       0.00059065 Ry

     iteration #  9     ecut=    70.00 Ry     beta=0.70
     CG style diagonalization
     ethr =  5.73E-07,  avg # of iterations =  3.3

     negative rho (up, down):  1.254E-04 0.000E+00

     total cpu time spent up to now is      620.3 secs

     total energy              =    -882.71279744 Ry
     Harris-Foulkes estimate   =    -882.71281831 Ry
     estimated scf accuracy    <       0.00006899 Ry

     iteration # 10     ecut=    70.00 Ry     beta=0.70
     CG style diagonalization
     ethr =  6.70E-08,  avg # of iterations =  5.2

     negative rho (up, down):  1.269E-04 0.000E+00

     total cpu time spent up to now is      718.8 secs

     total energy              =    -882.71286231 Ry
     Harris-Foulkes estimate   =    -882.71286673 Ry
     estimated scf accuracy    <       0.00001610 Ry

     iteration # 11     ecut=    70.00 Ry     beta=0.70
     CG style diagonalization
     ethr =  1.56E-08,  avg # of iterations =  5.3

     negative rho (up, down):  1.278E-04 0.000E+00

     total cpu time spent up to now is      820.0 secs

     total energy              =    -882.71287778 Ry
     Harris-Foulkes estimate   =    -882.71287793 Ry
     estimated scf accuracy    <       0.00000050 Ry

     iteration # 12     ecut=    70.00 Ry     beta=0.70
     CG style diagonalization
     ethr =  4.83E-10,  avg # of iterations =  8.1

     negative rho (up, down):  1.282E-04 0.000E+00

     total cpu time spent up to now is      988.2 secs

     total energy              =    -882.71288201 Ry
     Harris-Foulkes estimate   =    -882.71288206 Ry
     estimated scf accuracy    <       0.00000011 Ry

     iteration # 13     ecut=    70.00 Ry     beta=0.70
     CG style diagonalization
     ethr =  1.07E-10,  avg # of iterations =  4.5

     negative rho (up, down):  1.282E-04 0.000E+00

     total cpu time spent up to now is     1067.9 secs

     End of self-consistent calculation

          k = 0.0000 0.0000 0.0000 ( 48761 PWs)   bands (ev):

   -61.1154 -61.0929 -61.0929 -54.7305 -35.4991 -35.3678 -35.3678 -35.3327
   -35.2808 -35.2807 -35.2092 -35.2025 -35.2025 -31.0002 -30.9871 -30.9871
   -14.9406 -13.8012 -13.0632 -12.9345 -12.9345 -12.8969 -12.8244 -12.8243
    -6.3861  -6.3861  -6.2831  -6.0621  -5.4306  -5.4306  -5.3228  -4.4499
    -4.3639  -4.3639  -3.3419  -3.2403  -3.2403  -2.6344  -2.6344  -2.4425
    -2.2965  -2.2965  -2.2867  -1.4651  -1.4651  -1.1449  -1.1169  -1.1169
    -1.0341  -0.9633  -0.9633  -0.5877   1.5239   1.7806   1.7806   2.3101
     2.3101   2.6717   2.6719   2.6768   3.1466   3.1828

          k = 0.0000 0.1155 0.0000 ( 48801 PWs)   bands (ev):

   -61.1150 -61.0934 -61.0929 -54.7305 -35.4938 -35.3668 -35.3640 -35.3315
   -35.2819 -35.2807 -35.2121 -35.2086 -35.2034 -31.0002 -30.9881 -30.9875
   -14.9030 -13.7828 -13.0949 -12.9721 -12.9378 -12.9101 -12.8391 -12.8235
    -6.3289  -6.3107  -6.2175  -6.0133  -5.4222  -5.3881  -5.2807  -4.4333
    -4.3470  -4.3450  -3.3567  -3.2831  -3.2186  -2.7324  -2.5966  -2.5123
    -2.3253  -2.2849  -2.2623  -1.5292  -1.4448  -1.4361  -1.4008  -1.1924
    -1.0373  -0.8490  -0.8430  -0.5880   1.5350   1.7669   1.7905   2.2460
     2.2795   2.5493   2.6481   2.7333   2.9882   3.1735

          k = 0.0000 0.2309 0.0000 ( 48770 PWs)   bands (ev):

   -61.1135 -61.0948 -61.0929 -54.7305 -35.4791 -35.3635 -35.3528 -35.3283
   -35.2851 -35.2807 -35.2262 -35.2225 -35.2041 -31.0004 -30.9906 -30.9883
   -14.7922 -13.7286 -13.2421 -13.0160 -12.9739 -12.9465 -12.8541 -12.8212
    -6.1676  -6.1180  -6.0229  -5.8688  -5.3984  -5.3349  -5.0912  -4.3912
    -4.3043  -4.2899  -3.4188  -3.3974  -3.1370  -3.0018  -2.7688  -2.4868
    -2.2839  -2.2434  -2.1869  -1.9655  -1.9536  -1.7015  -1.3419  -1.3150
    -1.1425  -0.8082  -0.7749  -0.6071   1.5485   1.7072   1.8155   2.0580
     2.2098   2.2936   2.5024   2.8950   3.0204   3.1087

          k = 0.0000 0.3464 0.0000 ( 48772 PWs)   bands (ev):

   -61.1115 -61.0969 -61.0929 -54.7306 -35.4587 -35.3568 -35.3355 -35.3234
   -35.2900 -35.2808 -35.2526 -35.2395 -35.2042 -31.0005 -30.9937 -30.9893
   -14.6140 -13.6419 -13.4939 -13.0883 -13.0371 -12.9572 -12.8558 -12.8185
    -5.9380  -5.8717  -5.7495  -5.6309  -5.3651  -5.2902  -4.7683  -4.3606
    -4.2317  -4.1997  -3.5422  -3.5167  -3.3829  -3.1135  -2.9955  -2.5507
    -2.5370  -2.3050  -2.1845  -2.1832  -2.0746  -1.9274  -1.4516  -1.3377
    -1.3157  -0.8429  -0.7720  -0.6735   1.5515   1.6010   1.7829   1.8431
     2.1048   2.1462   2.2802   2.7133   2.7405   2.7444

          k = 0.0000 0.4619 0.0000 ( 48764 PWs)   bands (ev):

   -61.1091 -61.0992 -61.0929 -54.7306 -35.4400 -35.3444 -35.3181 -35.3143
   -35.2953 -35.2833 -35.2808 -35.2607 -35.2042 -31.0006 -30.9962 -30.9902
   -14.3789 -13.7900 -13.5301 -13.2248 -13.0493 -12.9657 -12.8543 -12.8162
    -5.7157  -5.6401  -5.5012  -5.3614  -5.3342  -5.2519  -4.3685  -4.3476
    -4.1050  -4.0737  -3.7944  -3.6648  -3.6062  -3.5010  -3.0716  -3.0626
    -2.8104  -2.2587  -2.0899  -2.0704  -2.0346  -1.9339  -1.5367  -1.4925
    -1.4208  -0.9636  -0.7898  -0.7534   1.4847   1.5440   1.5658   1.8906
     2.0877   2.0924   2.1480   2.4126   2.4468   2.5773

          k = 0.0000-0.5774 0.0000 ( 48748 PWs)   bands (ev):

   -61.1079 -61.1005 -61.0929 -54.7306 -35.4323 -35.3310 -35.3152 -35.3042
   -35.2982 -35.2981 -35.2808 -35.2768 -35.2041 -31.0007 -30.9972 -30.9905
   -14.1378 -14.0540 -13.4382 -13.3263 -13.0536 -12.9689 -12.8535 -12.8154
    -5.6182  -5.5375  -5.3771  -5.3214  -5.2531  -5.2359  -4.2146  -4.1733
    -3.9851  -3.9786  -3.9404  -3.8865  -3.7010  -3.6423  -3.3458  -3.3120
    -2.6685  -2.4111  -2.0206  -2.0185  -1.9163  -1.7871  -1.7122  -1.6625
    -1.3159  -1.1042  -0.7993  -0.7808   1.4253   1.4998   1.5371   1.9431
     2.0448   2.1051   2.2137   2.2242   2.3010   2.5110

          k = 0.1000 0.1732 0.0000 ( 48791 PWs)   bands (ev):

   -61.1140 -61.0943 -61.0929 -54.7305 -35.4838 -35.3650 -35.3561 -35.3293
   -35.2841 -35.2808 -35.2242 -35.2126 -35.2066 -31.0003 -30.9898 -30.9881
   -14.8288 -13.7465 -13.1651 -13.0640 -12.9414 -12.9118 -12.8765 -12.8066
    -6.2253  -6.1657  -6.0915  -5.9170  -5.4495  -5.2738  -5.1871  -4.4031
    -4.3160  -4.3114  -3.4098  -3.3080  -3.2142  -2.9149  -2.6835  -2.5238
    -2.3048  -2.2659  -2.1945  -1.9326  -1.6698  -1.5441  -1.5065  -1.3099
    -1.0115  -0.8709  -0.7581  -0.5923   1.5360   1.7188   1.8168   2.1454
     2.1941   2.3566   2.5837   2.8159   2.8479   3.0822

          k = 0.1000 0.2887 0.0000 ( 48778 PWs)   bands (ev):

   -61.1122 -61.0961 -61.0929 -54.7306 -35.4657 -35.3613 -35.3411 -35.3253
   -35.2881 -35.2808 -35.2469 -35.2240 -35.2086 -31.0004 -30.9924 -30.9892
   -14.6842 -13.6759 -13.3471 -13.1575 -13.0219 -12.9158 -12.8772 -12.7815
    -6.0298  -5.9314  -5.8606  -5.7284  -5.4863  -5.1414  -4.9423  -4.3592
    -4.2695  -4.2481  -3.4900  -3.4090  -3.2362  -3.1654  -2.9663  -2.5289
    -2.3860  -2.2982  -2.1562  -2.0570  -2.0220  -1.9200  -1.6414  -1.2431
    -1.1197  -0.8720  -0.7570  -0.6093   1.4952   1.6330   1.8158   1.9259
     2.1002   2.1269   2.4222   2.7294   2.8451   3.0423

          k = 0.1000 0.4041 0.0000 ( 48753 PWs)   bands (ev):

   -61.1100 -61.0984 -61.0929 -54.7306 -35.4448 -35.3543 -35.3207 -35.3200
   -35.2934 -35.2808 -35.2751 -35.2433 -35.2088 -31.0006 -30.9951 -30.9903
   -14.4773 -13.6211 -13.5760 -13.2071 -13.1471 -12.9347 -12.8528 -12.7609
    -5.7818  -5.6911  -5.5921  -5.5141  -5.4665  -5.0312  -4.5712  -4.3451
    -4.1952  -4.1555  -3.6292  -3.5890  -3.5411  -3.3101  -3.1187  -3.0445
    -2.5310  -2.3539  -2.1932  -2.1626  -1.9834  -1.8826  -1.7087  -1.2965
    -1.2582  -0.9129  -0.8366  -0.6277   1.4286   1.5317   1.6420   1.8188
     2.0200   2.0466   2.3008   2.4991   2.5317   2.5740

          k = 0.1000 0.5196 0.0000 ( 48763 PWs)   bands (ev):

   -61.1079 -61.1005 -61.0929 -54.7306 -35.4298 -35.3426 -35.3152 -35.3050
   -35.2981 -35.2946 -35.2808 -35.2657 -35.2088 -31.0007 -30.9967 -30.9909
   -14.2226 -13.9185 -13.4606 -13.2798 -13.2316 -12.9430 -12.8408 -12.7494
    -5.5912  -5.5289  -5.5147  -5.3903  -5.2598  -4.9547  -4.2993  -4.1481
    -4.1085  -4.0627  -3.9647  -3.7281  -3.6801  -3.5785  -3.5785  -2.8859
    -2.8849  -2.5659  -2.2133  -2.0011  -1.8313  -1.7592  -1.7127  -1.4587
    -1.3041  -1.0509  -0.8912  -0.6342   1.3828   1.4214   1.5375   1.7928
     2.0331   2.0795   2.2236   2.2613   2.2949   2.4716

          k = 0.2000 0.3464 0.0000 ( 48776 PWs)   bands (ev):

   -61.1103 -61.0981 -61.0929 -54.7306 -35.4460 -35.3593 -35.3220 -35.3207
   -35.2927 -35.2808 -35.2738 -35.2270 -35.2190 -31.0006 -30.9944 -30.9906
   -14.5107 -13.5917 -13.4623 -13.3740 -13.0810 -13.0073 -12.8011 -12.7358
    -5.8054  -5.6735  -5.6460  -5.5883  -5.5169  -4.8333  -4.7394  -4.3208
    -4.2427  -4.2095  -3.5636  -3.5219  -3.4238  -3.3002  -3.2088  -3.1248
    -2.4448  -2.2548  -2.2297  -2.0789  -2.0280  -1.9365  -1.8386  -1.1759
    -1.1528  -0.9268  -0.8312  -0.5621   1.3613   1.5109   1.7063   1.7303
     1.9692   2.0621   2.3722   2.5312   2.5326   2.5474

          k = 0.2000 0.4619 0.0000 ( 48790 PWs)   bands (ev):

   -61.1079 -61.1004 -61.0929 -54.7306 -35.4251 -35.3571 -35.3153 -35.3052
   -35.2981 -35.2933 -35.2808 -35.2440 -35.2219 -31.0007 -30.9958 -30.9919
   -14.2823 -13.7135 -13.4836 -13.4641 -13.1913 -13.0526 -12.7522 -12.7045
    -5.6604  -5.5380  -5.4673  -5.4119  -5.2893  -4.6341  -4.3510  -4.3173
    -4.2455  -4.1696  -3.9078  -3.6188  -3.6027  -3.5353  -3.4752  -3.2631
    -2.7724  -2.4219  -2.3628  -2.1081  -1.9983  -1.7039  -1.6143  -1.2286
    -1.2181  -0.9978  -0.9273  -0.5039   1.2640   1.3570   1.5432   1.6134
     1.9308   2.0706   2.2506   2.2848   2.2940   2.3926

          k = 0.2000 0.5774 0.0000 ( 48766 PWs)   bands (ev):

   -61.1065 -61.1019 -61.0929 -54.7306 -35.4147 -35.3553 -35.3155 -35.3119
   -35.3014 -35.2808 -35.2764 -35.2623 -35.2221 -31.0007 -30.9963 -30.9924
   -14.0515 -13.9635 -13.4854 -13.3954 -13.2857 -13.0634 -12.7355 -12.6934
    -5.6864  -5.4141  -5.3571  -5.2996  -5.1833  -4.5517  -4.3050  -4.2483
    -4.1996  -4.0753  -3.9579  -3.8621  -3.8156  -3.6790  -3.4958  -3.1679
    -2.9940  -2.5660  -2.3965  -2.0449  -1.9482  -1.5930  -1.4606  -1.3255
    -1.2625  -1.0827  -0.9420  -0.4775   1.2488   1.2689   1.4811   1.5751
     2.0099   2.0636   2.0723   2.1799   2.2339   2.3679

          k = 0.3000 0.5196 0.0000 ( 48786 PWs)   bands (ev):

   -61.1056 -61.1027 -61.0929 -54.7306 -35.4039 -35.3675 -35.3179 -35.3099
   -35.3034 -35.2809 -35.2720 -35.2464 -35.2386 -31.0007 -30.9956 -30.9935
   -14.0464 -13.7856 -13.7139 -13.3812 -13.2309 -13.1542 -12.6983 -12.6734
    -5.7423  -5.3123  -5.2901  -5.2317  -5.1526  -4.4889  -4.2986  -4.2257
    -4.2196  -4.1228  -4.1102  -3.8369  -3.7699  -3.5550  -3.4764  -3.4235
    -3.2016  -2.4762  -2.2301  -2.2240  -2.0716  -1.4736  -1.4129  -1.2544
    -1.2296  -1.0808  -0.9489  -0.4024   1.1716   1.2182   1.4250   1.5015
     1.9177   2.0325   2.0884   2.1264   2.2371   2.3149

     the Fermi energy is    -0.5906 ev

!    total energy              =    -882.71288214 Ry
     Harris-Foulkes estimate   =    -882.71288208 Ry
     estimated scf accuracy    <          6.6E-09 Ry

     The total energy is the sum of the following terms:

     one-electron contribution =   -4100.13674788 Ry
     hartree contribution      =    2055.28339047 Ry
     xc contribution           =    -311.18030079 Ry
     ewald contribution        =    1473.32559595 Ry
     smearing contrib. (-TS)   =      -0.00481989 Ry

     convergence has been achieved in  13 iterations

     negative rho (up, down):  1.282E-04 0.000E+00

     Forces acting on atoms (Ry/au):

     atom    1 type  3   force =     0.00000000    0.00000000   -0.00000797
     atom    2 type  1   force =    -0.00238176   -0.00137511    0.00000650
     atom    3 type  1   force =     0.00000000    0.00275022    0.00000650
     atom    4 type  1   force =     0.00238176   -0.00137511    0.00000650
     atom    5 type  2   force =     0.01343609   -0.00775733    0.02542412
     atom    6 type  2   force =    -0.00000000    0.01551467    0.02542412
     atom    7 type  2   force =    -0.01343609   -0.00775733    0.02542412
     atom    8 type  2   force =     0.00000000    0.00000000    0.01206239
     atom    9 type  2   force =     0.01343253   -0.00775528   -0.02542697
     atom   10 type  2   force =    -0.00000000    0.01551056   -0.02542697
     atom   11 type  2   force =    -0.01343253   -0.00775528   -0.02542697
     atom   12 type  2   force =     0.00000000    0.00000000   -0.01206538

     Total force =     0.075076     Total SCF correction =     0.000205


     entering subroutine stress ...


     negative rho (up, down):  1.282E-04 0.000E+00
          total   stress  (Ry/bohr**3)                   (kbar)     P=   14.03
   0.00008791  -0.00000000   0.00000000         12.93     -0.00      0.00
  -0.00000000   0.00008791   0.00000000         -0.00     12.93      0.00
   0.00000000   0.00000000   0.00011025          0.00      0.00     16.22


     BFGS Geometry Optimization

     number of scf cycles    =   1
     number of bfgs steps    =   0

     energy   new            =    -882.7128821367 Ry

     new trust radius        =       0.0297843624 bohr
     new conv_thr            =       0.0000000100 Ry


ATOMIC_POSITIONS (angstrom)
Nb       0.000000000   1.875085000   3.183903783
Mo      -1.625131372   4.686984324   3.183911441
Mo       3.247742000   1.876540352   3.183911441
Mo       1.625131372   4.686984324   3.183911441
Se       1.630981075   0.933436996   4.840257866
Se       0.000000000   3.758379008   4.840257866
Se       4.864502925   0.933436996   4.840257866
Se       3.247742000   3.750169000   4.833187143
Se       1.630979191   0.933438084   1.527556626
Se       0.000000000   3.758376832   1.527556626
Se       4.864504809   0.933438084   1.527556626
Se       3.247742000   3.750169000   1.534627278



     Writing output data file mose2_nb.save
     Check: negative starting charge=   -0.001188
     NEW-OLD atomic charge density approx. for the potential
     Check: negative starting charge=   -0.001179

     negative rho (up, down):  2.137E-04 0.000E+00

     total cpu time spent up to now is     1107.5 secs

     per-process dynamical memory:   127.0 Mb

     Self-consistent Calculation

     iteration #  1     ecut=    70.00 Ry     beta=0.70
     CG style diagonalization
     c_bands:  1 eigenvalues not converged
     c_bands:  1 eigenvalues not converged
     c_bands:  3 eigenvalues not converged
     c_bands:  4 eigenvalues not converged
     c_bands:  2 eigenvalues not converged
     c_bands:  1 eigenvalues not converged
     c_bands:  4 eigenvalues not converged
     c_bands:  2 eigenvalues not converged
     c_bands:  5 eigenvalues not converged
     ethr =  1.00E-06,  avg # of iterations =  7.6

     negative rho (up, down):  1.432E-04 0.000E+00

     total cpu time spent up to now is     1271.4 secs

     total energy              =    -882.71715721 Ry
     Harris-Foulkes estimate   =    -882.71758281 Ry
     estimated scf accuracy    <       0.00054233 Ry

     iteration #  2     ecut=    70.00 Ry     beta=0.70
     CG style diagonalization
     c_bands:  1 eigenvalues not converged
     ethr =  5.27E-07,  avg # of iterations =  4.6

     negative rho (up, down):  1.305E-04 0.000E+00

     total cpu time spent up to now is     1351.4 secs

     total energy              =    -882.71681466 Ry
     Harris-Foulkes estimate   =    -882.71840740 Ry
     estimated scf accuracy    <       0.00575615 Ry

     iteration #  3     ecut=    70.00 Ry     beta=0.70
     CG style diagonalization
     ethr =  5.27E-07,  avg # of iterations =  4.0

     negative rho (up, down):  1.284E-04 0.000E+00

     total cpu time spent up to now is     1420.3 secs

     total energy              =    -882.71752690 Ry
     Harris-Foulkes estimate   =    -882.71753476 Ry
     estimated scf accuracy    <       0.00001257 Ry

     iteration #  4     ecut=    70.00 Ry     beta=0.70
     CG style diagonalization
     ethr =  1.22E-08,  avg # of iterations =  4.9

     negative rho (up, down):  1.276E-04 0.000E+00

     total cpu time spent up to now is     1505.9 secs

     total energy              =    -882.71753854 Ry
     Harris-Foulkes estimate   =    -882.71755661 Ry
     estimated scf accuracy    <       0.00006596 Ry

     iteration #  5     ecut=    70.00 Ry     beta=0.70
     CG style diagonalization
     ethr =  1.22E-08,  avg # of iterations =  3.8

     negative rho (up, down):  1.276E-04 0.000E+00

     total cpu time spent up to now is     1570.1 secs

     total energy              =    -882.71754644 Ry
     Harris-Foulkes estimate   =    -882.71755025 Ry
     estimated scf accuracy    <       0.00001465 Ry

     iteration #  6     ecut=    70.00 Ry     beta=0.70
     CG style diagonalization
     ethr =  1.22E-08,  avg # of iterations =  3.3

     negative rho (up, down):  1.275E-04 0.000E+00

     total cpu time spent up to now is     1624.1 secs

     total energy              =    -882.71754770 Ry
     Harris-Foulkes estimate   =    -882.71754825 Ry
     estimated scf accuracy    <       0.00000158 Ry

     iteration #  7     ecut=    70.00 Ry     beta=0.70
     CG style diagonalization
     ethr =  1.54E-09,  avg # of iterations =  4.0

     negative rho (up, down):  1.275E-04 0.000E+00

     total cpu time spent up to now is     1691.3 secs

     total energy              =    -882.71754798 Ry
     Harris-Foulkes estimate   =    -882.71754849 Ry
     estimated scf accuracy    <       0.00000202 Ry

     iteration #  8     ecut=    70.00 Ry     beta=0.70
     CG style diagonalization
     ethr =  1.54E-09,  avg # of iterations =  3.5

     negative rho (up, down):  1.275E-04 0.000E+00

     total cpu time spent up to now is     1748.7 secs

     total energy              =    -882.71754833 Ry
     Harris-Foulkes estimate   =    -882.71754839 Ry
     estimated scf accuracy    <       0.00000027 Ry

     iteration #  9     ecut=    70.00 Ry     beta=0.70
     CG style diagonalization
     ethr =  2.62E-10,  avg # of iterations =  3.9

     negative rho (up, down):  1.275E-04 0.000E+00

     total cpu time spent up to now is     1815.4 secs

     total energy              =    -882.71754842 Ry
     Harris-Foulkes estimate   =    -882.71754843 Ry
     estimated scf accuracy    <       0.00000005 Ry

     iteration # 10     ecut=    70.00 Ry     beta=0.70
     CG style diagonalization
     ethr =  5.31E-11,  avg # of iterations =  5.0

     negative rho (up, down):  1.275E-04 0.000E+00

     total cpu time spent up to now is     1903.2 secs

     End of self-consistent calculation

          k = 0.0000 0.0000 0.0000 ( 48761 PWs)   bands (ev):

   -61.1152 -61.0928 -61.0927 -54.7465 -35.5000 -35.3613 -35.3612 -35.3275
   -35.2760 -35.2759 -35.2018 -35.2018 -35.2010 -30.9929 -30.9929 -30.9918
   -14.9088 -13.8034 -13.0383 -12.8996 -12.8995 -12.8928 -12.7964 -12.7963
    -6.3566  -6.3565  -6.2549  -6.0410  -5.4232  -5.4232  -5.3092  -4.4116
    -4.3379  -4.3378  -3.2922  -3.1967  -3.1967  -2.5754  -2.5753  -2.4628
    -2.3301  -2.3114  -2.3114  -1.4099  -1.4099  -1.1436  -1.1175  -1.1175
    -1.0016  -0.9302  -0.9302  -0.6192   1.5376   1.7807   1.7808   2.3197
     2.3197   2.6654   2.6656   2.6671   3.1102   3.1914

          k = 0.0000 0.1155 0.0000 ( 48801 PWs)   bands (ev):

   -61.1147 -61.0933 -61.0927 -54.7465 -35.4947 -35.3603 -35.3574 -35.3263
   -35.2771 -35.2759 -35.2078 -35.2053 -35.2012 -30.9938 -30.9932 -30.9919
   -14.8713 -13.7847 -13.0698 -12.9375 -12.9055 -12.9029 -12.8123 -12.7956
    -6.2994  -6.2804  -6.1874  -5.9923  -5.4120  -5.3800  -5.2654  -4.3957
    -4.3220  -4.3188  -3.3105  -3.2441  -3.1755  -2.6737  -2.5379  -2.5206
    -2.3643  -2.3001  -2.2790  -1.4741  -1.4304  -1.4238  -1.3588  -1.1899
    -1.0060  -0.8315  -0.8208  -0.6159   1.5469   1.7631   1.7907   2.2532
     2.2863   2.5434   2.6388   2.7257   2.9532   3.1766

          k = 0.0000 0.2309 0.0000 ( 48770 PWs)   bands (ev):

   -61.1133 -61.0947 -61.0927 -54.7465 -35.4801 -35.3574 -35.3463 -35.3231
   -35.2803 -35.2759 -35.2249 -35.2165 -35.2011 -30.9962 -30.9940 -30.9920
   -14.7610 -13.7295 -13.2144 -12.9845 -12.9651 -12.9117 -12.8336 -12.7937
    -6.1382  -6.0867  -5.9865  -5.8470  -5.3806  -5.3214  -5.0744  -4.3571
    -4.2814  -4.2632  -3.3841  -3.3685  -3.0938  -2.9445  -2.7625  -2.4299
    -2.3149  -2.2588  -2.2032  -1.9462  -1.9382  -1.6467  -1.3375  -1.2943
    -1.1071  -0.7986  -0.7541  -0.6259   1.5564   1.6952   1.8160   2.0523
     2.2112   2.2877   2.4832   2.7817   2.8852   3.0868

          k = 0.0000 0.3464 0.0000 ( 48772 PWs)   bands (ev):

   -61.1112 -61.0968 -61.0927 -54.7465 -35.4596 -35.3518 -35.3291 -35.3183
   -35.2851 -35.2759 -35.2504 -35.2337 -35.2009 -30.9993 -30.9950 -30.9921
   -14.5836 -13.6413 -13.4648 -13.0784 -13.0073 -12.9225 -12.8394 -12.7913
    -5.9086  -5.8385  -5.7110  -5.6002  -5.3367  -5.2701  -4.7489  -4.3350
    -4.2090  -4.1728  -3.5245  -3.4968  -3.3287  -3.0948  -2.9532  -2.5310
    -2.5203  -2.2472  -2.2088  -2.1939  -2.0922  -1.8773  -1.4472  -1.3350
    -1.2749  -0.8400  -0.7513  -0.6788   1.5551   1.5829   1.7596   1.8419
     2.0981   2.1429   2.2569   2.6949   2.7110   2.7244

          k = 0.0000 0.4619 0.0000 ( 48764 PWs)   bands (ev):

   -61.1089 -61.0991 -61.0927 -54.7466 -35.4404 -35.3419 -35.3130 -35.3079
   -35.2904 -35.2791 -35.2760 -35.2549 -35.2008 -31.0017 -30.9958 -30.9922
   -14.3498 -13.7597 -13.5278 -13.2163 -13.0202 -12.9312 -12.8396 -12.7894
    -5.6862  -5.6042  -5.4633  -5.3180  -5.2961  -5.2259  -4.3469  -4.3268
    -4.0872  -4.0474  -3.7460  -3.6582  -3.5989  -3.4716  -3.0525  -3.0391
    -2.7727  -2.2141  -2.0867  -2.0368  -2.0359  -1.9564  -1.5026  -1.4899
    -1.4196  -0.9674  -0.7692  -0.7422   1.4650   1.5303   1.5450   1.8852
     2.0788   2.0877   2.1218   2.3969   2.4296   2.5453

          k = 0.0000-0.5774 0.0000 ( 48748 PWs)   bands (ev):

   -61.1077 -61.1003 -61.0927 -54.7466 -35.4324 -35.3325 -35.3101 -35.2964
   -35.2932 -35.2916 -35.2760 -35.2713 -35.2007 -31.0026 -30.9961 -30.9923
   -14.1161 -14.0165 -13.4350 -13.3186 -13.0247 -12.9345 -12.8392 -12.7887
    -5.5886  -5.5003  -5.3349  -5.2792  -5.2095  -5.2074  -4.1985  -4.1335
    -3.9689  -3.9534  -3.9185  -3.8642  -3.6815  -3.6400  -3.3224  -3.2865
    -2.6428  -2.3413  -2.0347  -2.0332  -1.8669  -1.8147  -1.6748  -1.6597
    -1.3204  -1.1042  -0.7788  -0.7651   1.4030   1.4626   1.5374   1.9347
     2.0406   2.0777   2.2023   2.2087   2.2870   2.4799

          k = 0.1000 0.1732 0.0000 ( 48791 PWs)   bands (ev):

   -61.1138 -61.0942 -61.0928 -54.7465 -35.4847 -35.3588 -35.3496 -35.3242
   -35.2792 -35.2760 -35.2214 -35.2072 -35.2046 -30.9954 -30.9938 -30.9920
   -14.7975 -13.7477 -13.1400 -13.0286 -12.9360 -12.8780 -12.8501 -12.7808
    -6.1967  -6.1334  -6.0575  -5.8957  -5.4337  -5.2661  -5.1672  -4.3673
    -4.2929  -4.2849  -3.3752  -3.2693  -3.1752  -2.8570  -2.6810  -2.4661
    -2.3340  -2.2853  -2.2098  -1.9162  -1.6156  -1.5349  -1.4858  -1.2828
    -0.9918  -0.8456  -0.7494  -0.6111   1.5438   1.7130   1.8147   2.1483
     2.1911   2.3510   2.5744   2.7878   2.8391   3.0759

          k = 0.1000 0.2887 0.0000 ( 48778 PWs)   bands (ev):

   -61.1120 -61.0960 -61.0928 -54.7465 -35.4667 -35.3557 -35.3347 -35.3201
   -35.2833 -35.2760 -35.2440 -35.2191 -35.2055 -30.9980 -30.9948 -30.9921
   -14.6536 -13.6759 -13.3195 -13.1245 -13.0137 -12.8938 -12.8441 -12.7572
    -6.0020  -5.8976  -5.8199  -5.7040  -5.4621  -5.1264  -4.9211  -4.3284
    -4.2476  -4.2218  -3.4698  -3.3799  -3.1806  -3.1290  -2.9517  -2.5127
    -2.3294  -2.3137  -2.1804  -2.0713  -2.0021  -1.8695  -1.6233  -1.2314
    -1.0969  -0.8496  -0.7594  -0.6112   1.4925   1.6300   1.8098   1.9124
     2.0889   2.1214   2.4121   2.7023   2.8232   3.0257

          k = 0.1000 0.4041 0.0000 ( 48753 PWs)   bands (ev):

   -61.1098 -61.0982 -61.0927 -54.7465 -35.4455 -35.3503 -35.3149 -35.3144
   -35.2885 -35.2760 -35.2712 -35.2383 -35.2054 -31.0006 -30.9959 -30.9922
   -14.4476 -13.5918 -13.5743 -13.1755 -13.1383 -12.9160 -12.8201 -12.7373
    -5.7543  -5.6551  -5.5518  -5.4816  -5.4292  -5.0069  -4.5487  -4.3230
    -4.1726  -4.1307  -3.5781  -3.5755  -3.5303  -3.2856  -3.1003  -3.0108
    -2.5092  -2.3427  -2.1391  -2.1384  -2.0025  -1.8983  -1.6850  -1.2965
    -1.2364  -0.9037  -0.8307  -0.6173   1.4152   1.5285   1.6212   1.8025
     2.0137   2.0370   2.2874   2.4819   2.5166   2.5493

          k = 0.1000 0.5196 0.0000 ( 48763 PWs)   bands (ev):

   -61.1077 -61.1003 -61.0927 -54.7466 -35.4301 -35.3421 -35.3102 -35.2978
   -35.2932 -35.2890 -35.2760 -35.2605 -35.2054 -31.0022 -30.9965 -30.9923
   -14.1952 -13.8869 -13.4573 -13.2722 -13.2005 -12.9254 -12.8082 -12.7261
    -5.5630  -5.4913  -5.4773  -5.3469  -5.2159  -4.9234  -4.2783  -4.1261
    -4.0891  -4.0344  -3.9272  -3.7238  -3.6508  -3.5716  -3.5567  -2.8605
    -2.8605  -2.5154  -2.2221  -1.9512  -1.8484  -1.7316  -1.7195  -1.4641
    -1.2976  -1.0503  -0.8703  -0.6203   1.3662   1.4003   1.5264   1.7728
     2.0277   2.0703   2.2021   2.2490   2.2802   2.4539

          k = 0.2000 0.3464 0.0000 ( 48776 PWs)   bands (ev):

   -61.1100 -61.0979 -61.0928 -54.7465 -35.4469 -35.3548 -35.3158 -35.3155
   -35.2878 -35.2760 -35.2698 -35.2216 -35.2164 -30.9999 -30.9962 -30.9922
   -14.4809 -13.5904 -13.4377 -13.3377 -13.0758 -12.9845 -12.7684 -12.7121
    -5.7796  -5.6443  -5.5925  -5.5563  -5.4868  -4.8222  -4.7064  -4.2943
    -4.2233  -4.1837  -3.5142  -3.5117  -3.3992  -3.2740  -3.1855  -3.1074
    -2.4345  -2.2080  -2.2043  -2.0595  -1.9973  -1.9541  -1.8526  -1.1725
    -1.1358  -0.8983  -0.8408  -0.5535   1.3496   1.5173   1.6844   1.7111
     1.9646   2.0495   2.3666   2.5055   2.5123   2.5372

          k = 0.2000 0.4619 0.0000 ( 48790 PWs)   bands (ev):

   -61.1077 -61.1003 -61.0928 -54.7466 -35.4258 -35.3549 -35.3102 -35.2983
   -35.2931 -35.2881 -35.2760 -35.2393 -35.2184 -31.0013 -30.9975 -30.9923
   -14.2538 -13.6846 -13.4805 -13.4312 -13.1849 -13.0338 -12.7197 -12.6809
    -5.6228  -5.5138  -5.4341  -5.3565  -5.2496  -4.6103  -4.3226  -4.2978
    -4.2232  -4.1471  -3.8629  -3.5987  -3.5951  -3.5252  -3.4497  -3.2401
    -2.7292  -2.3969  -2.3728  -2.0628  -1.9656  -1.7199  -1.6294  -1.2210
    -1.2155  -0.9908  -0.9080  -0.4939   1.2496   1.3587   1.5227   1.5884
     1.9259   2.0590   2.2414   2.2693   2.2741   2.3833

          k = 0.2000 0.5774 0.0000 ( 48766 PWs)   bands (ev):

   -61.1063 -61.1017 -61.0928 -54.7466 -35.4151 -35.3557 -35.3069 -35.3067
   -35.2964 -35.2760 -35.2705 -35.2582 -35.2185 -31.0018 -30.9980 -30.9923
   -14.0304 -13.9267 -13.4533 -13.3913 -13.2793 -13.0461 -12.7030 -12.6698
    -5.6467  -5.3841  -5.3294  -5.2393  -5.1417  -4.5215  -4.2849  -4.2373
    -4.1573  -4.0497  -3.9386  -3.8386  -3.7912  -3.6576  -3.4957  -3.1554
    -2.9393  -2.5403  -2.4091  -2.0012  -1.9130  -1.6092  -1.4788  -1.3278
    -1.2564  -1.0726  -0.9179  -0.4677   1.2345   1.2648   1.4647   1.5477
     2.0028   2.0563   2.0603   2.1678   2.2114   2.3620

          k = 0.3000 0.5196 0.0000 ( 48786 PWs)   bands (ev):

   -61.1054 -61.1026 -61.0928 -54.7466 -35.4046 -35.3674 -35.3090 -35.3049
   -35.2984 -35.2761 -35.2660 -35.2429 -35.2346 -31.0011 -30.9991 -30.9923
   -14.0212 -13.7593 -13.6754 -13.3765 -13.2303 -13.1321 -12.6658 -12.6496
    -5.7019  -5.2825  -5.2563  -5.1725  -5.1118  -4.4664  -4.2883  -4.2003
    -4.1931  -4.0878  -4.0800  -3.8115  -3.7515  -3.5328  -3.4573  -3.4262
    -3.1538  -2.4888  -2.2059  -2.1873  -2.0342  -1.4896  -1.4286  -1.2459
    -1.2351  -1.0665  -0.9242  -0.3951   1.1669   1.2134   1.4153   1.4624
     1.9130   2.0263   2.0713   2.1155   2.2213   2.3072

     the Fermi energy is    -0.5894 ev

!    total energy              =    -882.71754847 Ry
     Harris-Foulkes estimate   =    -882.71754848 Ry
     estimated scf accuracy    <          5.1E-09 Ry

     The total energy is the sum of the following terms:

     one-electron contribution =   -4088.46824903 Ry
     hartree contribution      =    2049.45703467 Ry
     xc contribution           =    -311.09911140 Ry
     ewald contribution        =    1467.39766149 Ry
     smearing contrib. (-TS)   =      -0.00488421 Ry

     convergence has been achieved in  10 iterations

     negative rho (up, down):  1.275E-04 0.000E+00

     Forces acting on atoms (Ry/au):

     atom    1 type  3   force =     0.00000000    0.00000000   -0.00001199
     atom    2 type  1   force =    -0.00082040   -0.00047366   -0.00001160
     atom    3 type  1   force =     0.00000000    0.00094732   -0.00001160
     atom    4 type  1   force =     0.00082040   -0.00047366   -0.00001160
     atom    5 type  2   force =     0.00887030   -0.00512127    0.01670957
     atom    6 type  2   force =     0.00000000    0.01024254    0.01670957
     atom    7 type  2   force =    -0.00887030   -0.00512127    0.01670957
     atom    8 type  2   force =     0.00000000    0.00000000    0.00823005
     atom    9 type  2   force =     0.00887325   -0.00512297   -0.01669884
     atom   10 type  2   force =    -0.00000000    0.01024594   -0.01669884
     atom   11 type  2   force =    -0.00887325   -0.00512297   -0.01669884
     atom   12 type  2   force =     0.00000000    0.00000000   -0.00821545

     Total force =     0.049414     Total SCF correction =     0.000209


     entering subroutine stress ...


     negative rho (up, down):  1.275E-04 0.000E+00
          total   stress  (Ry/bohr**3)                   (kbar)     P=   10.40
   0.00006942   0.00000000   0.00000000         10.21      0.00      0.00
   0.00000000   0.00006942   0.00000000          0.00     10.21      0.00
   0.00000000   0.00000000   0.00007319          0.00      0.00     10.77


     number of scf cycles    =   2
     number of bfgs steps    =   1

     energy   old            =    -882.7128821367 Ry
     energy   new            =    -882.7175484730 Ry

     CASE: energy  _new < energy  _old

     new trust radius        =       0.0327627987 bohr
     new conv_thr            =       0.0000000017 Ry


ATOMIC_POSITIONS (angstrom)
Nb      -0.000000000   1.875085000   3.183893189
Mo      -1.625858352   4.686564602   3.183901209
Mo       3.247742000   1.877379796   3.183901209
Mo       1.625858352   4.686564602   3.183901209
Se       1.638827734   0.928906726   4.855039256
Se       0.000000000   3.767439548   4.855039256
Se       4.856656266   0.928906726   4.855039256
Se       3.247742000   3.750169000   4.840466991
Se       1.638828447   0.928906314   1.512784703
Se       0.000000000   3.767440372   1.512784703
Se       4.856655553   0.928906314   1.512784703
Se       3.247742000   3.750169000   1.527360316



     Writing output data file mose2_nb.save
     Check: negative starting charge=   -0.001179
     NEW-OLD atomic charge density approx. for the potential
     Check: negative starting charge=   -0.001172

     negative rho (up, down):  2.301E-04 0.000E+00

     total cpu time spent up to now is     1940.5 secs

     per-process dynamical memory:   127.0 Mb

     Self-consistent Calculation

     iteration #  1     ecut=    70.00 Ry     beta=0.70
     CG style diagonalization
     c_bands:  1 eigenvalues not converged
     c_bands:  1 eigenvalues not converged
     c_bands:  3 eigenvalues not converged
     c_bands:  4 eigenvalues not converged
     c_bands:  3 eigenvalues not converged
     c_bands:  2 eigenvalues not converged
     c_bands:  2 eigenvalues not converged
     c_bands:  5 eigenvalues not converged
     c_bands:  4 eigenvalues not converged
     ethr =  1.00E-06,  avg # of iterations =  8.1

     negative rho (up, down):  1.475E-04 0.000E+00

     total cpu time spent up to now is     2098.9 secs

     total energy              =    -882.72005981 Ry
     Harris-Foulkes estimate   =    -882.72054959 Ry
     estimated scf accuracy    <       0.00062526 Ry

     iteration #  2     ecut=    70.00 Ry     beta=0.70
     CG style diagonalization
     c_bands:  1 eigenvalues not converged
     ethr =  6.07E-07,  avg # of iterations =  4.6

     negative rho (up, down):  1.322E-04 0.000E+00

     total cpu time spent up to now is     2179.0 secs

     total energy              =    -882.71961562 Ry
     Harris-Foulkes estimate   =    -882.72152965 Ry
     estimated scf accuracy    <       0.00707401 Ry

     iteration #  3     ecut=    70.00 Ry     beta=0.70
     CG style diagonalization
     c_bands:  1 eigenvalues not converged
     ethr =  6.07E-07,  avg # of iterations =  4.1

     negative rho (up, down):  1.293E-04 0.000E+00

     total cpu time spent up to now is     2249.2 secs

     total energy              =    -882.72048034 Ry
     Harris-Foulkes estimate   =    -882.72048578 Ry
     estimated scf accuracy    <       0.00000923 Ry

     iteration #  4     ecut=    70.00 Ry     beta=0.70
     CG style diagonalization
     ethr =  8.96E-09,  avg # of iterations =  5.2

     negative rho (up, down):  1.284E-04 0.000E+00

     total cpu time spent up to now is     2342.4 secs

     total energy              =    -882.72049534 Ry
     Harris-Foulkes estimate   =    -882.72050790 Ry
     estimated scf accuracy    <       0.00004257 Ry

     iteration #  5     ecut=    70.00 Ry     beta=0.70
     CG style diagonalization
     ethr =  8.96E-09,  avg # of iterations =  3.9

     negative rho (up, down):  1.283E-04 0.000E+00

     total cpu time spent up to now is     2409.9 secs

     total energy              =    -882.72049982 Ry
     Harris-Foulkes estimate   =    -882.72050445 Ry
     estimated scf accuracy    <       0.00001956 Ry

     iteration #  6     ecut=    70.00 Ry     beta=0.70
     CG style diagonalization
     ethr =  8.96E-09,  avg # of iterations =  3.4

     negative rho (up, down):  1.282E-04 0.000E+00

     total cpu time spent up to now is     2466.9 secs

     total energy              =    -882.72050142 Ry
     Harris-Foulkes estimate   =    -882.72050192 Ry
     estimated scf accuracy    <       0.00000177 Ry

     iteration #  7     ecut=    70.00 Ry     beta=0.70
     CG style diagonalization
     ethr =  1.72E-09,  avg # of iterations =  3.7

     negative rho (up, down):  1.282E-04 0.000E+00

     total cpu time spent up to now is     2530.1 secs

     total energy              =    -882.72050172 Ry
     Harris-Foulkes estimate   =    -882.72050204 Ry
     estimated scf accuracy    <       0.00000114 Ry

     iteration #  8     ecut=    70.00 Ry     beta=0.70
     CG style diagonalization
     ethr =  1.11E-09,  avg # of iterations =  3.6

     negative rho (up, down):  1.282E-04 0.000E+00

     total cpu time spent up to now is     2589.9 secs

     total energy              =    -882.72050198 Ry
     Harris-Foulkes estimate   =    -882.72050206 Ry
     estimated scf accuracy    <       0.00000037 Ry

     iteration #  9     ecut=    70.00 Ry     beta=0.70
     CG style diagonalization
     ethr =  3.56E-10,  avg # of iterations =  3.7

     negative rho (up, down):  1.282E-04 0.000E+00

     total cpu time spent up to now is     2653.1 secs

     total energy              =    -882.72050206 Ry
     Harris-Foulkes estimate   =    -882.72050207 Ry
     estimated scf accuracy    <       0.00000006 Ry

     iteration # 10     ecut=    70.00 Ry     beta=0.70
     CG style diagonalization
     ethr =  5.86E-11,  avg # of iterations =  5.5

     negative rho (up, down):  1.282E-04 0.000E+00

     total cpu time spent up to now is     2752.0 secs

     total energy              =    -882.72050214 Ry
     Harris-Foulkes estimate   =    -882.72050214 Ry
     estimated scf accuracy    <          5.6E-09 Ry

     iteration # 11     ecut=    70.00 Ry     beta=0.70
     CG style diagonalization
     ethr =  5.41E-12,  avg # of iterations =  6.0

     negative rho (up, down):  1.282E-04 0.000E+00

     total cpu time spent up to now is     2859.6 secs

     End of self-consistent calculation

          k = 0.0000 0.0000 0.0000 ( 48761 PWs)   bands (ev):

   -61.1138 -61.0914 -61.0914 -54.7626 -35.4983 -35.3530 -35.3529 -35.3216
   -35.2706 -35.2705 -35.1986 -35.1986 -35.1910 -30.9983 -30.9983 -30.9827
   -14.8741 -13.8049 -13.0095 -12.8854 -12.8614 -12.8614 -12.7658 -12.7657
    -6.3235  -6.3235  -6.2242  -6.0166  -5.4136  -5.4135  -5.2938  -4.3673
    -4.3084  -4.3083  -3.2373  -3.1483  -3.1482  -2.5094  -2.5094  -2.4826
    -2.3762  -2.3270  -2.3270  -1.3473  -1.3473  -1.1419  -1.1174  -1.1174
    -0.9637  -0.8935  -0.8935  -0.6526   1.5529   1.7844   1.7845   2.3286
     2.3287   2.6546   2.6575   2.6576   3.0728   3.1965

          k = 0.0000 0.1155 0.0000 ( 48801 PWs)   bands (ev):

   -61.1133 -61.0919 -61.0914 -54.7626 -35.4931 -35.3522 -35.3492 -35.3205
   -35.2717 -35.2705 -35.2044 -35.2006 -35.1927 -30.9992 -30.9986 -30.9827
   -14.8368 -13.7858 -13.0411 -12.8994 -12.8981 -12.8648 -12.7827 -12.7651
    -6.2663  -6.2465  -6.1547  -5.9678  -5.3995  -5.3699  -5.2477  -4.3524
    -4.2936  -4.2891  -3.2596  -3.2009  -3.1274  -2.6080  -2.5290  -2.4725
    -2.4057  -2.3162  -2.2957  -1.4147  -1.4114  -1.4103  -1.3092  -1.1864
    -0.9703  -0.8134  -0.7943  -0.6436   1.5601   1.7622   1.7944   2.2595
     2.2930   2.5367   2.6275   2.7173   2.9174   3.1767

          k = 0.0000 0.2309 0.0000 ( 48770 PWs)   bands (ev):

   -61.1119 -61.0933 -61.0914 -54.7626 -35.4784 -35.3497 -35.3381 -35.3173
   -35.2749 -35.2706 -35.2210 -35.2099 -35.1943 -31.0016 -30.9994 -30.9828
   -14.7271 -13.7297 -13.1838 -12.9551 -12.9487 -12.8738 -12.8089 -12.7636
    -6.1051  -6.0526  -5.9466  -5.8217  -5.3599  -5.3062  -5.0547  -4.3180
    -4.2547  -4.2331  -3.3456  -3.3368  -3.0456  -2.8802  -2.7563  -2.3667
    -2.3463  -2.2753  -2.2192  -1.9243  -1.9202  -1.5839  -1.3319  -1.2675
    -1.0669  -0.7925  -0.7292  -0.6417   1.5639   1.6848   1.8200   2.0450
     2.2128   2.2814   2.4620   2.7681   2.8727   3.0656

          k = 0.0000 0.3464 0.0000 ( 48772 PWs)   bands (ev):

   -61.1098 -61.0954 -61.0914 -54.7627 -35.4579 -35.3452 -35.3211 -35.3125
   -35.2796 -35.2706 -35.2455 -35.2265 -35.1947 -31.0045 -31.0003 -30.9829
   -14.5506 -13.6399 -13.4327 -13.0672 -12.9731 -12.8848 -12.8190 -12.7617
    -5.8755  -5.8034  -5.6693  -5.5638  -5.3047  -5.2479  -4.7263  -4.3061
    -4.1819  -4.1426  -3.5050  -3.4743  -3.2677  -3.0739  -2.9063  -2.5091
    -2.5001  -2.2339  -2.2085  -2.1822  -2.1094  -1.8159  -1.4414  -1.3286
    -1.2287  -0.8412  -0.7262  -0.6799   1.5568   1.5645   1.7353   1.8432
     2.0912   2.1408   2.2311   2.6751   2.6769   2.7064

          k = 0.0000 0.4619 0.0000 ( 48764 PWs)   bands (ev):

   -61.1075 -61.0977 -61.0914 -54.7627 -35.4384 -35.3378 -35.3073 -35.3003
   -35.2849 -35.2720 -35.2706 -35.2472 -35.1947 -31.0069 -31.0011 -30.9830
   -14.3184 -13.7262 -13.5244 -13.2064 -12.9867 -12.8935 -12.8210 -12.7601
    -5.6529  -5.5676  -5.4208  -5.2678  -5.2533  -5.1972  -4.3228  -4.3035
    -4.0656  -4.0181  -3.6919  -3.6502  -3.5902  -3.4374  -3.0286  -3.0130
    -2.7308  -2.1855  -2.1036  -2.0152  -1.9791  -1.9750  -1.5105  -1.4372
    -1.4175  -0.9714  -0.7439  -0.7295   1.4428   1.4951   1.5429   1.8809
     2.0694   2.0856   2.0936   2.3804   2.4107   2.5128

          k = 0.0000-0.5774 0.0000 ( 48748 PWs)   bands (ev):

   -61.1063 -61.0989 -61.0914 -54.7627 -35.4301 -35.3316 -35.3045 -35.2877
   -35.2864 -35.2846 -35.2706 -35.2629 -35.1947 -31.0078 -31.0014 -30.9831
   -14.0932 -13.9747 -13.4307 -13.3096 -12.9914 -12.8969 -12.8211 -12.7595
    -5.5552  -5.4628  -5.2873  -5.2316  -5.1760  -5.1592  -4.1791  -4.0904
    -3.9556  -3.9256  -3.8932  -3.8379  -3.6540  -3.6370  -3.2930  -3.2581
    -2.6117  -2.2724  -2.0456  -2.0433  -1.8440  -1.8107  -1.6849  -1.6012
    -1.3252  -1.1020  -0.7535  -0.7488   1.3767   1.4265   1.5341   1.9256
     2.0406   2.0481   2.1892   2.1931   2.2720   2.4486

          k = 0.1000 0.1732 0.0000 ( 48791 PWs)   bands (ev):

   -61.1123 -61.0928 -61.0914 -54.7626 -35.4831 -35.3509 -35.3415 -35.3183
   -35.2738 -35.2706 -35.2171 -35.2031 -35.1961 -31.0008 -30.9992 -30.9828
   -14.7634 -13.7482 -13.1120 -12.9894 -12.9283 -12.8408 -12.8210 -12.7518
    -6.1646  -6.0977  -6.0203  -5.8710  -5.4154  -5.2562  -5.1447  -4.3259
    -4.2667  -4.2547  -3.3373  -3.2269  -3.1312  -2.7922  -2.6792  -2.4019
    -2.3645  -2.3046  -2.2250  -1.8973  -1.5535  -1.5247  -1.4626  -1.2488
    -0.9680  -0.8180  -0.7437  -0.6247   1.5514   1.7099   1.8160   2.1490
     2.1880   2.3449   2.5641   2.7596   2.8281   3.0690

          k = 0.1000 0.2887 0.0000 ( 48778 PWs)   bands (ev):

   -61.1106 -61.0946 -61.0914 -54.7626 -35.4651 -35.3485 -35.3267 -35.3143
   -35.2778 -35.2706 -35.2389 -35.2131 -35.1987 -31.0033 -31.0002 -30.9829
   -14.6202 -13.6751 -13.2895 -13.0871 -13.0042 -12.8683 -12.8075 -12.7295
    -5.9710  -5.8613  -5.7747  -5.6759  -5.4349  -5.1094  -4.8965  -4.2934
    -4.2225  -4.1917  -3.4470  -3.3483  -3.1181  -3.0883  -2.9357  -2.4942
    -2.3303  -2.2662  -2.2056  -2.0851  -1.9792  -1.8099  -1.6030  -1.2146
    -1.0699  -0.8276  -0.7623  -0.6075   1.4872   1.6292   1.8044   1.8974
     2.0784   2.1157   2.4019   2.6766   2.7974   2.8174

          k = 0.1000 0.4041 0.0000 ( 48753 PWs)   bands (ev):

   -61.1083 -61.0969 -61.0914 -54.7627 -35.4438 -35.3448 -35.3092 -35.3067
   -35.2830 -35.2706 -35.2647 -35.2314 -35.1991 -31.0058 -31.0012 -30.9830
   -14.4154 -13.5717 -13.5597 -13.1397 -13.1282 -12.8939 -12.7839 -12.7103
    -5.7237  -5.6179  -5.5069  -5.4454  -5.3856  -4.9800  -4.5230  -4.2982
    -4.1468  -4.1019  -3.5618  -3.5205  -3.5167  -3.2574  -3.0791  -2.9736
    -2.4841  -2.3419  -2.1037  -2.0767  -2.0172  -1.9126  -1.6597  -1.2929
    -1.2098  -0.9010  -0.8155  -0.6042   1.3984   1.5229   1.6008   1.7872
     2.0073   2.0295   2.2738   2.4626   2.5009   2.5250

          k = 0.1000 0.5196 0.0000 ( 48763 PWs)   bands (ev):

   -61.1063 -61.0989 -61.0914 -54.7627 -35.4279 -35.3398 -35.3045 -35.2888
   -35.2877 -35.2817 -35.2706 -35.2528 -35.1992 -31.0074 -31.0019 -30.9831
   -14.1659 -13.8519 -13.4530 -13.2633 -13.1652 -12.9046 -12.7721 -12.6995
    -5.5315  -5.4494  -5.4395  -5.2977  -5.1650  -4.8885  -4.2554  -4.1026
    -4.0668  -4.0035  -3.8836  -3.7168  -3.6247  -3.5561  -3.5310  -2.8322
    -2.8321  -2.4662  -2.2240  -1.8947  -1.8655  -1.7502  -1.6771  -1.4658
    -1.2879  -1.0479  -0.8458  -0.6042   1.3438   1.3762   1.5164   1.7543
     2.0241   2.0608   2.1799   2.2352   2.2645   2.4359

          k = 0.2000 0.3464 0.0000 ( 48776 PWs)   bands (ev):

   -61.1086 -61.0966 -61.0914 -54.7627 -35.4453 -35.3487 -35.3098 -35.3081
   -35.2823 -35.2706 -35.2633 -35.2166 -35.2086 -31.0051 -31.0015 -30.9830
   -14.4484 -13.5880 -13.4116 -13.2960 -13.0693 -12.9585 -12.7322 -12.6851
    -5.7511  -5.6115  -5.5340  -5.5206  -5.4530  -4.8085  -4.6704  -4.2642
    -4.2017  -4.1534  -3.5050  -3.4531  -3.3750  -3.2422  -3.1592  -3.0873
    -2.4330  -2.1731  -2.1492  -2.0366  -1.9694  -1.9618  -1.8653  -1.1653
    -1.1155  -0.8664  -0.8503  -0.5426   1.3353   1.5237   1.6592   1.6934
     1.9601   2.0401   2.3606   2.4807   2.4898   2.5263

          k = 0.2000 0.4619 0.0000 ( 48790 PWs)   bands (ev):

   -61.1063 -61.0989 -61.0914 -54.7627 -35.4240 -35.3512 -35.3045 -35.2896
   -35.2876 -35.2808 -35.2706 -35.2330 -35.2116 -31.0065 -31.0028 -30.9831
   -14.2231 -13.6536 -13.4763 -13.3933 -13.1779 -13.0114 -12.6836 -12.6540
    -5.5806  -5.4872  -5.3996  -5.2945  -5.2038  -4.5841  -4.2909  -4.2765
    -4.1976  -4.1208  -3.8117  -3.5871  -3.5756  -3.5177  -3.4161  -3.2140
    -2.6839  -2.3783  -2.3684  -2.0135  -1.9275  -1.7359  -1.6436  -1.2207
    -1.1997  -0.9847  -0.8817  -0.4822   1.2315   1.3559   1.5001   1.5682
     1.9212   2.0498   2.2315   2.2522   2.2530   2.3761

          k = 0.2000 0.5774 0.0000 ( 48766 PWs)   bands (ev):

   -61.1049 -61.1003 -61.0914 -54.7627 -35.4131 -35.3540 -35.3013 -35.2960
   -35.2909 -35.2707 -35.2645 -35.2506 -35.2118 -31.0069 -31.0033 -30.9831
   -14.0075 -13.8870 -13.4165 -13.3857 -13.2726 -13.0253 -12.6670 -12.6429
    -5.6022  -5.3534  -5.2980  -5.1732  -5.0932  -4.4881  -4.2614  -4.2243
    -4.1112  -4.0198  -3.9211  -3.8111  -3.7630  -3.6330  -3.4919  -3.1393
    -2.8809  -2.5107  -2.4196  -1.9517  -1.8751  -1.6255  -1.4966  -1.3266
    -1.2475  -1.0592  -0.8897  -0.4561   1.2133   1.2581   1.4461   1.5266
     1.9964   2.0480   2.0499   2.1541   2.1891   2.3570

          k = 0.3000 0.5196 0.0000 ( 48786 PWs)   bands (ev):

   -61.1040 -61.1011 -61.0914 -54.7627 -35.4029 -35.3654 -35.2993 -35.2982
   -35.2928 -35.2707 -35.2596 -35.2379 -35.2261 -31.0062 -31.0043 -30.9831
   -13.9941 -13.7349 -13.6276 -13.3699 -13.2299 -13.1062 -12.6297 -12.6224
    -5.6566  -5.2478  -5.2292  -5.1003  -5.0647  -4.4404  -4.2769  -4.1784
    -4.1571  -4.0507  -4.0446  -3.7826  -3.7314  -3.5145  -3.4365  -3.4198
    -3.0990  -2.4998  -2.1788  -2.1465  -1.9917  -1.5063  -1.4432  -1.2377
    -1.2345  -1.0490  -0.8950  -0.3862   1.1526   1.2079   1.4124   1.4212
     1.9090   2.0199   2.0562   2.1025   2.2059   2.3004

     the Fermi energy is    -0.5844 ev

!    total energy              =    -882.72050215 Ry
     Harris-Foulkes estimate   =    -882.72050215 Ry
     estimated scf accuracy    <          1.1E-10 Ry

     The total energy is the sum of the following terms:

     one-electron contribution =   -4075.60637894 Ry
     hartree contribution      =    2043.03728822 Ry
     xc contribution           =    -311.01102642 Ry
     ewald contribution        =    1460.86451575 Ry
     smearing contrib. (-TS)   =      -0.00490075 Ry

     convergence has been achieved in  11 iterations

     negative rho (up, down):  1.282E-04 0.000E+00

     Forces acting on atoms (Ry/au):

     atom    1 type  3   force =     0.00000000    0.00000000    0.00001798
     atom    2 type  1   force =     0.00050622    0.00029226    0.00001554
     atom    3 type  1   force =     0.00000000   -0.00058453    0.00001554
     atom    4 type  1   force =    -0.00050622    0.00029226    0.00001554
     atom    5 type  2   force =     0.00411465   -0.00237559    0.00750799
     atom    6 type  2   force =    -0.00000000    0.00475119    0.00750799
     atom    7 type  2   force =    -0.00411465   -0.00237559    0.00750799
     atom    8 type  2   force =     0.00000000    0.00000000    0.00335443
     atom    9 type  2   force =     0.00411612   -0.00237644   -0.00752452
     atom   10 type  2   force =    -0.00000000    0.00475288   -0.00752452
     atom   11 type  2   force =    -0.00411612   -0.00237644   -0.00752452
     atom   12 type  2   force =     0.00000000    0.00000000   -0.00336944

     Total force =     0.022318     Total SCF correction =     0.000021


     entering subroutine stress ...


     negative rho (up, down):  1.282E-04 0.000E+00
          total   stress  (Ry/bohr**3)                   (kbar)     P=    6.48
   0.00005002   0.00000000   0.00000000          7.36      0.00      0.00
   0.00000000   0.00005002   0.00000000          0.00      7.36      0.00
  -0.00000000  -0.00000000   0.00003216         -0.00     -0.00      4.73


     number of scf cycles    =   3
     number of bfgs steps    =   2

     energy   old            =    -882.7175484730 Ry
     energy   new            =    -882.7205021455 Ry

     CASE: energy  _new < energy  _old

     new trust radius        =       0.0270448819 bohr
     new conv_thr            =       0.0000000008 Ry


ATOMIC_POSITIONS (angstrom)
Nb      -0.000000000   1.875085000   3.183906992
Mo      -1.625614304   4.686705503   3.183912809
Mo       3.247742000   1.877097994   3.183912809
Mo       1.625614304   4.686705503   3.183912809
Se       1.645389377   0.925118359   4.867166210
Se       0.000000000   3.775016282   4.867166210
Se       4.850094623   0.925118359   4.867166210
Se       3.247742000   3.750169000   4.846108401
Se       1.645392350   0.925116643   1.500644950
Se      -0.000000000   3.775019714   1.500644950
Se       4.850091650   0.925116643   1.500644950
Se       3.247742000   3.750169000   1.521708699



     Writing output data file mose2_nb.save
     Check: negative starting charge=   -0.001172
     NEW-OLD atomic charge density approx. for the potential
     Check: negative starting charge=   -0.001171

     negative rho (up, down):  2.030E-04 0.000E+00

     total cpu time spent up to now is     2895.9 secs

     per-process dynamical memory:   127.0 Mb

     Self-consistent Calculation

     iteration #  1     ecut=    70.00 Ry     beta=0.70
     CG style diagonalization
     c_bands:  1 eigenvalues not converged
     c_bands:  2 eigenvalues not converged
     c_bands:  2 eigenvalues not converged
     c_bands:  2 eigenvalues not converged
     c_bands:  2 eigenvalues not converged
     c_bands:  1 eigenvalues not converged
     c_bands:  3 eigenvalues not converged
     c_bands:  4 eigenvalues not converged
     c_bands:  3 eigenvalues not converged
     c_bands:  2 eigenvalues not converged
     c_bands:  4 eigenvalues not converged
     c_bands:  2 eigenvalues not converged
     ethr =  1.00E-06,  avg # of iterations =  6.0

     negative rho (up, down):  1.430E-04 0.000E+00

     total cpu time spent up to now is     3021.7 secs

     total energy              =    -882.72093929 Ry
     Harris-Foulkes estimate   =    -882.72126322 Ry
     estimated scf accuracy    <       0.00041252 Ry

     iteration #  2     ecut=    70.00 Ry     beta=0.70
     CG style diagonalization
     ethr =  4.01E-07,  avg # of iterations =  4.6

     negative rho (up, down):  1.320E-04 0.000E+00

     total cpu time spent up to now is     3102.7 secs

     total energy              =    -882.72068054 Ry
     Harris-Foulkes estimate   =    -882.72199071 Ry
     estimated scf accuracy    <       0.00493476 Ry

     iteration #  3     ecut=    70.00 Ry     beta=0.70
     CG style diagonalization
     ethr =  4.01E-07,  avg # of iterations =  4.0

     negative rho (up, down):  1.298E-04 0.000E+00

     total cpu time spent up to now is     3172.1 secs

     total energy              =    -882.72126610 Ry
     Harris-Foulkes estimate   =    -882.72126973 Ry
     estimated scf accuracy    <       0.00000667 Ry

     iteration #  4     ecut=    70.00 Ry     beta=0.70
     CG style diagonalization
     ethr =  6.48E-09,  avg # of iterations =  5.3

     negative rho (up, down):  1.292E-04 0.000E+00

     total cpu time spent up to now is     3265.7 secs

     total energy              =    -882.72127984 Ry
     Harris-Foulkes estimate   =    -882.72128378 Ry
     estimated scf accuracy    <       0.00001243 Ry

     iteration #  5     ecut=    70.00 Ry     beta=0.70
     CG style diagonalization
     ethr =  6.48E-09,  avg # of iterations =  3.7

     negative rho (up, down):  1.291E-04 0.000E+00

     total cpu time spent up to now is     3329.1 secs

     total energy              =    -882.72128023 Ry
     Harris-Foulkes estimate   =    -882.72128343 Ry
     estimated scf accuracy    <       0.00001382 Ry

     iteration #  6     ecut=    70.00 Ry     beta=0.70
     CG style diagonalization
     ethr =  6.48E-09,  avg # of iterations =  3.4

     negative rho (up, down):  1.290E-04 0.000E+00

     total cpu time spent up to now is     3385.7 secs

     total energy              =    -882.72128167 Ry
     Harris-Foulkes estimate   =    -882.72128196 Ry
     estimated scf accuracy    <       0.00000108 Ry

     iteration #  7     ecut=    70.00 Ry     beta=0.70
     CG style diagonalization
     ethr =  1.05E-09,  avg # of iterations =  3.7

     negative rho (up, down):  1.290E-04 0.000E+00

     total cpu time spent up to now is     3449.6 secs

     total energy              =    -882.72128198 Ry
     Harris-Foulkes estimate   =    -882.72128201 Ry
     estimated scf accuracy    <       0.00000006 Ry

     iteration #  8     ecut=    70.00 Ry     beta=0.70
     CG style diagonalization
     ethr =  5.55E-11,  avg # of iterations =  7.0

     negative rho (up, down):  1.290E-04 0.000E+00

     total cpu time spent up to now is     3577.9 secs

     total energy              =    -882.72128214 Ry
     Harris-Foulkes estimate   =    -882.72128217 Ry
     estimated scf accuracy    <       0.00000015 Ry

     iteration #  9     ecut=    70.00 Ry     beta=0.70
     CG style diagonalization
     ethr =  5.55E-11,  avg # of iterations =  3.6

     negative rho (up, down):  1.289E-04 0.000E+00

     total cpu time spent up to now is     3639.2 secs

     total energy              =    -882.72128216 Ry
     Harris-Foulkes estimate   =    -882.72128216 Ry
     estimated scf accuracy    <       0.00000002 Ry

     iteration # 10     ecut=    70.00 Ry     beta=0.70
     CG style diagonalization
     ethr =  1.85E-11,  avg # of iterations =  3.6

     negative rho (up, down):  1.289E-04 0.000E+00

     total cpu time spent up to now is     3699.9 secs

     End of self-consistent calculation

          k = 0.0000 0.0000 0.0000 ( 48761 PWs)   bands (ev):

   -61.1114 -61.0891 -61.0891 -54.7755 -35.4942 -35.3450 -35.3450 -35.3168
   -35.2662 -35.2662 -35.1938 -35.1937 -35.1820 -31.0026 -31.0026 -30.9759
   -14.8459 -13.8053 -12.9848 -12.8766 -12.8305 -12.8304 -12.7411 -12.7410
    -6.2959  -6.2959  -6.1992  -5.9957  -5.4043  -5.4043  -5.2809  -4.3295
    -4.2837  -4.2836  -3.1927  -3.1083  -3.1083  -2.4946  -2.4550  -2.4550
    -2.4130  -2.3396  -2.3396  -1.2948  -1.2947  -1.1394  -1.1170  -1.1170
    -0.9304  -0.8633  -0.8633  -0.6790   1.5652   1.7911   1.7911   2.3350
     2.3351   2.6426   2.6518   2.6520   3.0441   3.1965

          k = 0.0000 0.1155 0.0000 ( 48801 PWs)   bands (ev):

   -61.1109 -61.0896 -61.0891 -54.7755 -35.4890 -35.3443 -35.3413 -35.3157
   -35.2673 -35.2662 -35.1995 -35.1955 -35.1839 -31.0035 -31.0029 -30.9760
   -14.8089 -13.7859 -13.0169 -12.8895 -12.8681 -12.8339 -12.7584 -12.7405
    -6.2387  -6.2184  -6.1281  -5.9469  -5.3880  -5.3606  -5.2328  -4.3152
    -4.2698  -4.2643  -3.2184  -3.1653  -3.0875  -2.5538  -2.5350  -2.4369
    -2.4185  -2.3291  -2.3084  -1.4022  -1.3988  -1.3587  -1.2662  -1.1826
    -0.9396  -0.8006  -0.7708  -0.6632   1.5702   1.7651   1.8012   2.2638
     2.2978   2.5314   2.6170   2.7106   2.8898   3.1738

          k = 0.0000 0.2309 0.0000 ( 48770 PWs)   bands (ev):

   -61.1095 -61.0910 -61.0891 -54.7755 -35.4744 -35.3423 -35.3304 -35.3126
   -35.2705 -35.2662 -35.2157 -35.2036 -35.1866 -31.0058 -31.0036 -30.9761
   -14.6996 -13.7290 -13.1588 -12.9456 -12.9185 -12.8430 -12.7874 -12.7393
    -6.0775  -6.0247  -5.9140  -5.8001  -5.3421  -5.2934  -5.0376  -4.2852
    -4.2315  -4.2081  -3.3142  -3.3105  -3.0056  -2.8270  -2.7525  -2.3683
    -2.3150  -2.2888  -2.2309  -1.9058  -1.9042  -1.5307  -1.3265  -1.2426
    -1.0327  -0.7918  -0.7069  -0.6501   1.5686   1.6798   1.8267   2.0386
     2.2141   2.2769   2.4440   2.7585   2.8622   3.0513

          k = 0.0000 0.3464 0.0000 ( 48772 PWs)   bands (ev):

   -61.1074 -61.0931 -61.0891 -54.7755 -35.4539 -35.3386 -35.3136 -35.3078
   -35.2752 -35.2662 -35.2394 -35.2193 -35.1876 -31.0087 -31.0046 -30.9762
   -14.5239 -13.6379 -13.4066 -13.0573 -12.9440 -12.8541 -12.8005 -12.7377
    -5.8478  -5.7754  -5.6360  -5.5322  -5.2777  -5.2297  -4.7071  -4.2823
    -4.1578  -4.1177  -3.4881  -3.4557  -3.2171  -3.0572  -2.8675  -2.4916
    -2.4818  -2.2519  -2.2218  -2.1279  -2.1215  -1.7625  -1.4359  -1.3204
    -1.1897  -0.8449  -0.7033  -0.6783   1.5522   1.5557   1.7167   1.8474
     2.0862   2.1405   2.2105   2.6506   2.6598   2.6921

          k = 0.0000 0.4619 0.0000 ( 48764 PWs)   bands (ev):

   -61.1051 -61.0953 -61.0891 -54.7755 -35.4342 -35.3328 -35.3026 -35.2931
   -35.2804 -35.2662 -35.2645 -35.2394 -35.1878 -31.0110 -31.0054 -30.9763
   -14.2931 -13.6988 -13.5209 -13.1977 -12.9582 -12.8629 -12.8038 -12.7364
    -5.6250  -5.5391  -5.3862  -5.2252  -5.2173  -5.1740  -4.3028  -4.2842
    -4.0462  -3.9942  -3.6472  -3.6420  -3.5828  -3.4093  -3.0066  -2.9919
    -2.6963  -2.1809  -2.1157  -1.9955  -1.9766  -1.9240  -1.5142  -1.4153
    -1.3930  -0.9741  -0.7206  -0.7197   1.4243   1.4709   1.5378   1.8801
     2.0625   2.0709   2.0863   2.3680   2.3958   2.4878

          k = 0.0000-0.5774 0.0000 ( 48748 PWs)   bands (ev):

   -61.1039 -61.0966 -61.0891 -54.7755 -35.4257 -35.3284 -35.2998 -35.2832
   -35.2783 -35.2773 -35.2662 -35.2542 -35.1879 -31.0119 -31.0057 -30.9763
   -14.0745 -13.9407 -13.4263 -13.3017 -12.9630 -12.8663 -12.8044 -12.7360
    -5.5270  -5.4337  -5.2488  -5.1917  -5.1505  -5.1163  -4.1625  -4.0550
    -3.9459  -3.9030  -3.8713  -3.8165  -3.6344  -3.6276  -3.2655  -3.2351
    -2.5847  -2.2293  -2.0540  -2.0365  -1.8663  -1.7633  -1.6905  -1.5525
    -1.3292  -1.0983  -0.7368  -0.7300   1.3531   1.4034   1.5277   1.9210
     2.0245   2.0431   2.1789   2.1814   2.2608   2.4246

          k = 0.1000 0.1732 0.0000 ( 48791 PWs)   bands (ev):

   -61.1099 -61.0905 -61.0891 -54.7755 -35.4791 -35.3433 -35.3337 -35.3136
   -35.2694 -35.2662 -35.2116 -35.1981 -35.1874 -31.0050 -31.0035 -30.9760
   -14.7357 -13.7478 -13.0886 -12.9571 -12.9200 -12.8104 -12.7972 -12.7280
    -6.1379  -6.0682  -5.9901  -5.8498  -5.3996  -5.2468  -5.1260  -4.2904
    -4.2448  -4.2294  -3.3063  -3.1925  -3.0944  -2.7386  -2.6789  -2.3858
    -2.3491  -2.3198  -2.2361  -1.8810  -1.5167  -1.5012  -1.4430  -1.2181
    -0.9467  -0.7969  -0.7420  -0.6290   1.5564   1.7107   1.8208   2.1482
     2.1857   2.3406   2.5556   2.7378   2.8191   3.0633

          k = 0.1000 0.2887 0.0000 ( 48778 PWs)   bands (ev):

   -61.1082 -61.0923 -61.0891 -54.7755 -35.4611 -35.3415 -35.3191 -35.3096
   -35.2734 -35.2662 -35.2328 -35.2071 -35.1910 -31.0075 -31.0045 -30.9762
   -14.5931 -13.6736 -13.2651 -13.0557 -12.9954 -12.8467 -12.7775 -12.7065
    -5.9453  -5.8317  -5.7379  -5.6519  -5.4122  -5.0951  -4.8756  -4.2642
    -4.2007  -4.1663  -3.4278  -3.3227  -3.0663  -3.0549  -2.9234  -2.4785
    -2.3427  -2.2244  -2.2141  -2.0949  -1.9596  -1.7589  -1.5860  -1.1979
    -1.0462  -0.8156  -0.7598  -0.6010   1.4821   1.6303   1.8013   1.8865
     2.0714   2.1118   2.3942   2.6566   2.7784   2.8074

          k = 0.1000 0.4041 0.0000 ( 48753 PWs)   bands (ev):

   -61.1059 -61.0945 -61.0891 -54.7755 -35.4397 -35.3388 -35.3045 -35.2994
   -35.2785 -35.2662 -35.2576 -35.2244 -35.1920 -31.0100 -31.0055 -30.9763
   -14.3894 -13.5688 -13.5336 -13.1193 -13.1096 -12.8748 -12.7540 -12.6878
    -5.6982  -5.5884  -5.4707  -5.4155  -5.3482  -4.9576  -4.5013  -4.2776
    -4.1244  -4.0777  -3.5502  -3.5046  -3.4726  -3.2344  -3.0609  -2.9433
    -2.4628  -2.3464  -2.0818  -2.0252  -2.0138  -1.9213  -1.6394  -1.2867
    -1.1858  -0.9021  -0.7980  -0.5924   1.3849   1.5147   1.5868   1.7781
     2.0028   2.0256   2.2634   2.4474   2.4892   2.5065

          k = 0.1000 0.5196 0.0000 ( 48763 PWs)   bands (ev):

   -61.1039 -61.0966 -61.0891 -54.7755 -35.4236 -35.3358 -35.2998 -35.2831
   -35.2809 -35.2742 -35.2662 -35.2449 -35.1923 -31.0115 -31.0061 -30.9763
   -14.1424 -13.8231 -13.4485 -13.2556 -13.1356 -12.8865 -12.7424 -12.6772
    -5.5054  -5.4147  -5.4099  -5.2580  -5.1214  -4.8596  -4.2366  -4.0838
    -4.0474  -3.9786  -3.8467  -3.7087  -3.6110  -3.5353  -3.5085  -2.8087
    -2.8076  -2.4342  -2.2168  -1.8776  -1.8474  -1.7631  -1.6435  -1.4634
    -1.2776  -1.0441  -0.8248  -0.5903   1.3253   1.3560   1.5077   1.7436
     2.0224   2.0540   2.1636   2.2244   2.2528   2.4210

          k = 0.2000 0.3464 0.0000 ( 48776 PWs)   bands (ev):

   -61.1062 -61.0942 -61.0891 -54.7755 -35.4413 -35.3425 -35.3051 -35.3008
   -35.2778 -35.2662 -35.2562 -35.2111 -35.2002 -31.0093 -31.0058 -30.9763
   -14.4222 -13.5853 -13.3908 -13.2607 -13.0629 -12.9367 -12.7024 -12.6625
    -5.7275  -5.5840  -5.4910  -5.4865  -5.4252  -4.7959  -4.6412  -4.2394
    -4.1829  -4.1276  -3.4966  -3.4042  -3.3562  -3.2150  -3.1381  -3.0702
    -2.4367  -2.1410  -2.1059  -2.0160  -1.9762  -1.9306  -1.8736  -1.1565
    -1.0977  -0.8581  -0.8384  -0.5327   1.3239   1.5270   1.6375   1.6839
     1.9572   2.0358   2.3552   2.4633   2.4721   2.5181

          k = 0.2000 0.4619 0.0000 ( 48790 PWs)   bands (ev):

   -61.1039 -61.0965 -61.0891 -54.7755 -35.4199 -35.3465 -35.2999 -35.2831
   -35.2817 -35.2732 -35.2663 -35.2263 -35.2040 -31.0106 -31.0070 -30.9763
   -14.1983 -13.6290 -13.4720 -13.3608 -13.1717 -12.9918 -12.6539 -12.6314
    -5.5457  -5.4652  -5.3712  -5.2456  -5.1645  -4.5625  -4.2647  -4.2595
    -4.1753  -4.0986  -3.7687  -3.5793  -3.5558  -3.5127  -3.3873  -3.1923
    -2.6505  -2.3769  -2.3444  -1.9745  -1.8936  -1.7471  -1.6530  -1.2175
    -1.1856  -0.9790  -0.8577  -0.4720   1.2169   1.3488   1.4791   1.5614
     1.9184   2.0450   2.2238   2.2366   2.2392   2.3718

          k = 0.2000 0.5774 0.0000 ( 48766 PWs)   bands (ev):

   -61.1025 -61.0980 -61.0891 -54.7756 -35.4088 -35.3503 -35.2966 -35.2865
   -35.2863 -35.2663 -35.2590 -35.2423 -35.2045 -31.0111 -31.0075 -30.9764
   -13.9884 -13.8558 -13.3850 -13.3798 -13.2672 -13.0069 -12.6373 -12.6203
    -5.5653  -5.3293  -5.2705  -5.1228  -5.0505  -4.4606  -4.2412  -4.2130
    -4.0740  -3.9937  -3.9079  -3.7881  -3.7390  -3.6144  -3.4846  -3.1247
    -2.8350  -2.4856  -2.4252  -1.9102  -1.8444  -1.6375  -1.5091  -1.3224
    -1.2382  -1.0463  -0.8654  -0.4461   1.1971   1.2474   1.4262   1.5207
     1.9929   2.0415   2.0437   2.1432   2.1729   2.3537

          k = 0.3000 0.5196 0.0000 ( 48786 PWs)   bands (ev):

   -61.1017 -61.0988 -61.0891 -54.7756 -35.3987 -35.3616 -35.2947 -35.2886
   -35.2882 -35.2663 -35.2538 -35.2313 -35.2175 -31.0104 -31.0085 -30.9764
   -13.9721 -13.7173 -13.5856 -13.3632 -13.2295 -13.0841 -12.6000 -12.5997
    -5.6189  -5.2178  -5.2091  -5.0420  -5.0243  -4.4179  -4.2673  -4.1597
    -4.1279  -4.0215  -4.0140  -3.7580  -3.7144  -3.5068  -3.4209  -3.4045
    -3.0531  -2.5065  -2.1565  -2.1128  -1.9557  -1.5189  -1.4529  -1.2369
    -1.2234  -1.0329  -0.8696  -0.3785   1.1392   1.2001   1.3810   1.4241
     1.9073   2.0154   2.0469   2.0913   2.1945   2.2960

     the Fermi energy is    -0.5772 ev

!    total energy              =    -882.72128216 Ry
     Harris-Foulkes estimate   =    -882.72128216 Ry
     estimated scf accuracy    <          3.8E-10 Ry

     The total energy is the sum of the following terms:

     one-electron contribution =   -4065.14959765 Ry
     hartree contribution      =    2037.82283130 Ry
     xc contribution           =    -310.94055000 Ry
     ewald contribution        =    1455.55093263 Ry
     smearing contrib. (-TS)   =      -0.00489843 Ry

     convergence has been achieved in  10 iterations

     negative rho (up, down):  1.289E-04 0.000E+00

     Forces acting on atoms (Ry/au):

     atom    1 type  3   force =     0.00000000    0.00000000   -0.00000680
     atom    2 type  1   force =     0.00133222    0.00076916   -0.00000796
     atom    3 type  1   force =    -0.00000000   -0.00153831   -0.00000796
     atom    4 type  1   force =    -0.00133222    0.00076916   -0.00000796
     atom    5 type  2   force =     0.00033216   -0.00019177    0.00026463
     atom    6 type  2   force =    -0.00000000    0.00038354    0.00026463
     atom    7 type  2   force =    -0.00033216   -0.00019177    0.00026463
     atom    8 type  2   force =     0.00000000    0.00000000   -0.00097195
     atom    9 type  2   force =     0.00033202   -0.00019169   -0.00025712
     atom   10 type  2   force =     0.00000000    0.00038338   -0.00025712
     atom   11 type  2   force =    -0.00033202   -0.00019169   -0.00025712
     atom   12 type  2   force =     0.00000000    0.00000000    0.00098012

     Total force =     0.003209     Total SCF correction =     0.000084


     entering subroutine stress ...


     negative rho (up, down):  1.289E-04 0.000E+00
          total   stress  (Ry/bohr**3)                   (kbar)     P=    3.41
   0.00003535   0.00000000   0.00000000          5.20      0.00      0.00
   0.00000000   0.00003535  -0.00000000          0.00      5.20     -0.00
   0.00000000   0.00000000  -0.00000119          0.00      0.00     -0.18


     number of scf cycles    =   4
     number of bfgs steps    =   3

     energy   old            =    -882.7205021455 Ry
     energy   new            =    -882.7212821596 Ry

     CASE: energy  _new < energy  _old

     new trust radius        =       0.0015870730 bohr
     new conv_thr            =       0.0000000002 Ry


ATOMIC_POSITIONS (angstrom)
Nb      -0.000000000   1.875085000   3.183903465
Mo      -1.624886988   4.687125419   3.183908618
Mo       3.247742000   1.876258162   3.183908618
Mo       1.624886988   4.687125419   3.183908618
Se       1.645756434   0.924906439   4.867655634
Se       0.000000000   3.775440122   4.867655634
Se       4.849727566   0.924906439   4.867655634
Se       3.247742000   3.750169000   4.845739245
Se       1.645759387   0.924904734   1.500159444
Se      -0.000000000   3.775443532   1.500159444
Se       4.849724613   0.924904734   1.500159444
Se       3.247742000   3.750169000   1.522082203



     Writing output data file mose2_nb.save
     Check: negative starting charge=   -0.001171
     NEW-OLD atomic charge density approx. for the potential
     Check: negative starting charge=   -0.001172

     negative rho (up, down):  1.297E-04 0.000E+00

     total cpu time spent up to now is     3737.0 secs

     per-process dynamical memory:   127.0 Mb

     Self-consistent Calculation

     iteration #  1     ecut=    70.00 Ry     beta=0.70
     CG style diagonalization
     ethr =  1.00E-06,  avg # of iterations =  2.4

     Threshold (ethr) on eigenvalues was too large:
     Diagonalizing with lowered threshold

     CG style diagonalization
     c_bands:  3 eigenvalues not converged
     ethr =  1.37E-09,  avg # of iterations = 12.6

     negative rho (up, down):  1.292E-04 0.000E+00

     total cpu time spent up to now is     4023.7 secs

     total energy              =    -882.72129125 Ry
     Harris-Foulkes estimate   =    -882.72129324 Ry
     estimated scf accuracy    <       0.00000266 Ry

     iteration #  2     ecut=    70.00 Ry     beta=0.70
     CG style diagonalization
     ethr =  2.59E-09,  avg # of iterations =  4.2

     negative rho (up, down):  1.291E-04 0.000E+00

     total cpu time spent up to now is     4096.1 secs

     total energy              =    -882.72128968 Ry
     Harris-Foulkes estimate   =    -882.72129563 Ry
     estimated scf accuracy    <       0.00001985 Ry

     iteration #  3     ecut=    70.00 Ry     beta=0.70
     CG style diagonalization
     ethr =  2.59E-09,  avg # of iterations =  3.9

     negative rho (up, down):  1.290E-04 0.000E+00

     total cpu time spent up to now is     4162.6 secs

     total energy              =    -882.72129244 Ry
     Harris-Foulkes estimate   =    -882.72129279 Ry
     estimated scf accuracy    <       0.00000081 Ry

     iteration #  4     ecut=    70.00 Ry     beta=0.70
     CG style diagonalization
     ethr =  7.85E-10,  avg # of iterations =  3.5

     negative rho (up, down):  1.291E-04 0.000E+00

     total cpu time spent up to now is     4221.5 secs

     total energy              =    -882.72129258 Ry
     Harris-Foulkes estimate   =    -882.72129274 Ry
     estimated scf accuracy    <       0.00000049 Ry

     iteration #  5     ecut=    70.00 Ry     beta=0.70
     CG style diagonalization
     ethr =  4.75E-10,  avg # of iterations =  3.3

     negative rho (up, down):  1.291E-04 0.000E+00

     total cpu time spent up to now is     4277.2 secs

     total energy              =    -882.72129266 Ry
     Harris-Foulkes estimate   =    -882.72129269 Ry
     estimated scf accuracy    <       0.00000010 Ry

     iteration #  6     ecut=    70.00 Ry     beta=0.70
     CG style diagonalization
     ethr =  9.46E-11,  avg # of iterations =  3.4

     negative rho (up, down):  1.291E-04 0.000E+00

     total cpu time spent up to now is     4333.4 secs

     total energy              =    -882.72129268 Ry
     Harris-Foulkes estimate   =    -882.72129268 Ry
     estimated scf accuracy    <          4.4E-09 Ry

     iteration #  7     ecut=    70.00 Ry     beta=0.70
     CG style diagonalization
[...]

     new trust radius        =       0.0058920083 bohr
     new conv_thr            =            1.0E-10 Ry


ATOMIC_POSITIONS (angstrom)
Nb      -0.000000000   1.875085000   3.183902430
Mo      -1.618391955   4.690875328   3.183903430
Mo       3.247742000   1.868758344   3.183903430
Mo       1.618391955   4.690875328   3.183903430
Se       1.646424843   0.924520533   4.869685109
Se       0.000000000   3.776211934   4.869685109
Se       4.849059157   0.924520533   4.869685109
Se       3.247742000   3.750169000   4.838855585
Se       1.646426199   0.924519750   1.498134262
Se       0.000000000   3.776213501   1.498134262
Se       4.849057801   0.924519750   1.498134262
Se       3.247742000   3.750169000   1.528969583



     Writing output data file mose2_nb.save
     Check: negative starting charge=   -0.001172
     NEW-OLD atomic charge density approx. for the potential
     Check: negative starting charge=   -0.001171

     negative rho (up, down):  1.332E-04 0.000E+00

     total cpu time spent up to now is     7224.4 secs

     per-process dynamical memory:   127.0 Mb

     Self-consistent Calculation

     iteration #  1     ecut=    70.00 Ry     beta=0.70
     CG style diagonalization
     ethr =  1.00E-06,  avg # of iterations =  3.5

     Threshold (ethr) on eigenvalues was too large:
     Diagonalizing with lowered threshold

     CG style diagonalization
     c_bands:  2 eigenvalues not converged
     c_bands:  3 eigenvalues not converged
     c_bands:  5 eigenvalues not converged
     c_bands:  4 eigenvalues not converged
     c_bands:  3 eigenvalues not converged
     c_bands:  4 eigenvalues not converged
     ethr =  1.94E-08,  avg # of iterations =  9.5

     negative rho (up, down):  1.285E-04 0.000E+00

     total cpu time spent up to now is     7480.5 secs

     total energy              =    -882.72134134 Ry
     Harris-Foulkes estimate   =    -882.72135666 Ry
     estimated scf accuracy    <       0.00002262 Ry

     iteration #  2     ecut=    70.00 Ry     beta=0.70
     CG style diagonalization
     ethr =  2.20E-08,  avg # of iterations =  3.9

     negative rho (up, down):  1.281E-04 0.000E+00

     total cpu time spent up to now is     7546.9 secs

     total energy              =    -882.72133462 Ry
     Harris-Foulkes estimate   =    -882.72136246 Ry
     estimated scf accuracy    <       0.00007185 Ry

     iteration #  3     ecut=    70.00 Ry     beta=0.70
     CG style diagonalization
     ethr =  2.20E-08,  avg # of iterations =  3.6

     negative rho (up, down):  1.279E-04 0.000E+00

     total cpu time spent up to now is     7608.6 secs

     total energy              =    -882.72134723 Ry
     Harris-Foulkes estimate   =    -882.72135415 Ry
     estimated scf accuracy    <       0.00002319 Ry

     iteration #  4     ecut=    70.00 Ry     beta=0.70
     CG style diagonalization
     ethr =  2.20E-08,  avg # of iterations =  3.2

     negative rho (up, down):  1.280E-04 0.000E+00

     total cpu time spent up to now is     7661.3 secs

     total energy              =    -882.72135031 Ry
     Harris-Foulkes estimate   =    -882.72135143 Ry
     estimated scf accuracy    <       0.00000276 Ry

     iteration #  5     ecut=    70.00 Ry     beta=0.70
     CG style diagonalization
     ethr =  2.68E-09,  avg # of iterations =  3.6

     negative rho (up, down):  1.279E-04 0.000E+00

     total cpu time spent up to now is     7721.4 secs

     total energy              =    -882.72135080 Ry
     Harris-Foulkes estimate   =    -882.72135138 Ry
     estimated scf accuracy    <       0.00000154 Ry

     iteration #  6     ecut=    70.00 Ry     beta=0.70
     CG style diagonalization
     ethr =  1.50E-09,  avg # of iterations =  3.3

     negative rho (up, down):  1.279E-04 0.000E+00

     total cpu time spent up to now is     7776.7 secs

     total energy              =    -882.72135101 Ry
     Harris-Foulkes estimate   =    -882.72135107 Ry
     estimated scf accuracy    <       0.00000006 Ry

     iteration #  7     ecut=    70.00 Ry     beta=0.70
     CG style diagonalization
     ethr =  5.82E-11,  avg # of iterations =  4.3

     negative rho (up, down):  1.279E-04 0.000E+00

     total cpu time spent up to now is     7851.5 secs

     total energy              =    -882.72135110 Ry
     Harris-Foulkes estimate   =    -882.72135106 Ry
     estimated scf accuracy    <          6.6E-09 Ry

     iteration #  8     ecut=    70.00 Ry     beta=0.70
     CG style diagonalization
     ethr =  6.40E-12,  avg # of iterations =  4.9

     negative rho (up, down):  1.279E-04 0.000E+00

     total cpu time spent up to now is     7936.8 secs

     total energy              =    -882.72135110 Ry
     Harris-Foulkes estimate   =    -882.72135111 Ry
     estimated scf accuracy    <       0.00000002 Ry

     iteration #  9     ecut=    70.00 Ry     beta=0.70
     CG style diagonalization
     ethr =  6.40E-12,  avg # of iterations =  3.5

     negative rho (up, down):  1.279E-04 0.000E+00

     total cpu time spent up to now is     7996.4 secs

     total energy              =    -882.72135111 Ry
     Harris-Foulkes estimate   =    -882.72135111 Ry
     estimated scf accuracy    <          1.1E-09 Ry

     iteration # 10     ecut=    70.00 Ry     beta=0.70
     CG style diagonalization
     ethr =  1.08E-12,  avg # of iterations =  4.5

     negative rho (up, down):  1.279E-04 0.000E+00

     total cpu time spent up to now is     8073.9 secs

     End of self-consistent calculation

          k = 0.0000 0.0000 0.0000 ( 48761 PWs)   bands (ev):

   -61.1118 -61.0896 -61.0895 -54.7783 -35.4899 -35.3473 -35.3473 -35.3187
   -35.2681 -35.2681 -35.1925 -35.1925 -35.1867 -31.0047 -31.0047 -30.9746
   -14.8466 -13.8047 -12.9866 -12.8669 -12.8309 -12.8308 -12.7470 -12.7470
    -6.2963  -6.2963  -6.1969  -5.9988  -5.4024  -5.4024  -5.2868  -4.3304
    -4.2845  -4.2844  -3.2003  -3.1046  -3.1046  -2.4581  -2.4581  -2.4543
    -2.4266  -2.3565  -2.3565  -1.2922  -1.2922  -1.1278  -1.1267  -1.1267
    -0.9144  -0.8656  -0.8656  -0.6842   1.5483   1.8084   1.8084   2.3310
     2.3310   2.6381   2.6553   2.6553   3.0376   3.1582

          k = 0.0000 0.1155 0.0000 ( 48801 PWs)   bands (ev):

   -61.1113 -61.0901 -61.0895 -54.7783 -35.4846 -35.3465 -35.3436 -35.3176
   -35.2692 -35.2681 -35.1984 -35.1946 -35.1883 -31.0056 -31.0050 -30.9747
   -14.8096 -13.7853 -13.0187 -12.8803 -12.8685 -12.8343 -12.7639 -12.7465
    -6.2389  -6.2192  -6.1255  -5.9502  -5.3860  -5.3596  -5.2378  -4.3156
    -4.2708  -4.2655  -3.2258  -3.1600  -3.0839  -2.5567  -2.5310  -2.4217
    -2.4202  -2.3458  -2.3207  -1.4085  -1.3964  -1.3561  -1.2641  -1.1815
    -0.9330  -0.8046  -0.7654  -0.6699   1.5517   1.7836   1.8185   2.2614
     2.2937   2.5340   2.6124   2.7137   2.8823   3.1487

          k = 0.0000 0.2309 0.0000 ( 48770 PWs)   bands (ev):

   -61.1100 -61.0914 -61.0895 -54.7783 -35.4700 -35.3441 -35.3327 -35.3144
   -35.2724 -35.2681 -35.2150 -35.2043 -35.1893 -31.0080 -31.0058 -30.9748
   -14.7003 -13.7282 -13.1602 -12.9397 -12.9191 -12.8435 -12.7898 -12.7452
    -6.0771  -6.0263  -5.9107  -5.8042  -5.3400  -5.2953  -5.0400  -4.2848
    -4.2324  -4.2103  -3.3208  -3.3027  -3.0030  -2.8292  -2.7570  -2.3509
    -2.3199  -2.3053  -2.2376  -1.9107  -1.9000  -1.5277  -1.3272  -1.2413
    -1.0267  -0.7963  -0.6970  -0.6598   1.5470   1.6989   1.8430   2.0410
     2.2108   2.2786   2.4387   2.7506   2.8655   3.0597

          k = 0.0000 0.3464 0.0000 ( 48772 PWs)   bands (ev):

   -61.1079 -61.0935 -61.0895 -54.7783 -35.4494 -35.3395 -35.3160 -35.3097
   -35.2771 -35.2681 -35.2396 -35.2208 -35.1895 -31.0108 -31.0068 -30.9749
   -14.5247 -13.6367 -13.4078 -13.0548 -12.9448 -12.8546 -12.7999 -12.7437
    -5.8461  -5.7782  -5.6333  -5.5362  -5.2755  -5.2329  -4.7083  -4.2823
    -4.1568  -4.1215  -3.4787  -3.4616  -3.2182  -3.0628  -2.8657  -2.5030
    -2.4764  -2.2387  -2.2387  -2.1261  -2.1244  -1.7586  -1.4388  -1.3200
    -1.1838  -0.8488  -0.6913  -0.6896   1.5302   1.5647   1.7280   1.8628
     2.0879   2.1392   2.2052   2.6431   2.6640   2.6941

          k = 0.0000 0.4619 0.0000 ( 48764 PWs)   bands (ev):

   -61.1056 -61.0958 -61.0895 -54.7783 -35.4299 -35.3319 -35.3045 -35.2957
   -35.2823 -35.2681 -35.2664 -35.2410 -35.1894 -31.0132 -31.0075 -30.9750
   -14.2940 -13.6998 -13.5188 -13.1974 -12.9589 -12.8635 -12.8019 -12.7425
    -5.6217  -5.5437  -5.3845  -5.2285  -5.2150  -5.1780  -4.3031  -4.2857
    -4.0427  -4.0003  -3.6467  -3.6312  -3.5885  -3.4159  -3.0013  -3.0003
    -2.6949  -2.1984  -2.1038  -1.9969  -1.9718  -1.9238  -1.5150  -1.4212
    -1.3873  -0.9745  -0.7366  -0.7040   1.4113   1.5072   1.5094   1.8954
     2.0643   2.0678   2.0876   2.3711   2.3984   2.4782

          k = 0.0000-0.5774 0.0000 ( 48748 PWs)   bands (ev):

   -61.1044 -61.0970 -61.0895 -54.7783 -35.4215 -35.3253 -35.3017 -35.2851
   -35.2813 -35.2811 -35.2681 -35.2554 -35.1894 -31.0141 -31.0078 -30.9750
   -14.0756 -13.9414 -13.4214 -13.3046 -12.9638 -12.8669 -12.8021 -12.7420
    -5.5228  -5.4392  -5.2466  -5.1893  -5.1548  -5.1200  -4.1749  -4.0396
    -3.9419  -3.9107  -3.8710  -3.8148  -3.6400  -3.6290  -3.2586  -3.2437
    -2.5833  -2.2419  -2.0436  -2.0366  -1.8630  -1.7647  -1.6947  -1.5455
    -1.3401  -1.0933  -0.7554  -0.7124   1.3358   1.4437   1.4986   1.9384
     2.0224   2.0435   2.1767   2.1882   2.2636   2.4135

          k = 0.1000 0.1732 0.0000 ( 48791 PWs)   bands (ev):

   -61.1104 -61.0910 -61.0896 -54.7783 -35.4746 -35.3453 -35.3360 -35.3155
   -35.2713 -35.2681 -35.2111 -35.1971 -35.1916 -31.0072 -31.0056 -30.9747
   -14.7364 -13.7470 -13.0904 -12.9572 -12.9121 -12.8110 -12.8026 -12.7329
    -6.1378  -6.0698  -5.9867  -5.8536  -5.3991  -5.2456  -5.1299  -4.2901
    -4.2458  -4.2313  -3.3079  -3.1920  -3.0897  -2.7411  -2.6831  -2.3662
    -2.3531  -2.3357  -2.2457  -1.8815  -1.5256  -1.4984  -1.4339  -1.2165
    -0.9438  -0.7965  -0.7402  -0.6341   1.5382   1.7270   1.8374   2.1501
     2.1815   2.3424   2.5523   2.7272   2.8220   2.8873

          k = 0.1000 0.2887 0.0000 ( 48778 PWs)   bands (ev):

   -61.1087 -61.0927 -61.0895 -54.7783 -35.4566 -35.3429 -35.3214 -35.3115
   -35.2753 -35.2681 -35.2330 -35.2075 -35.1936 -31.0096 -31.0066 -30.9749
   -14.5939 -13.6726 -13.2666 -13.0560 -12.9906 -12.8504 -12.7781 -12.7103
    -5.9447  -5.8339  -5.7333  -5.6571  -5.4123  -5.0950  -4.8778  -4.2637
    -4.2007  -4.1695  -3.4260  -3.3220  -3.0678  -3.0514  -2.9298  -2.4826
    -2.3469  -2.2193  -2.2155  -2.1016  -1.9602  -1.7558  -1.5841  -1.1968
    -1.0448  -0.8164  -0.7573  -0.6040   1.4724   1.6338   1.8060   1.9006
     2.0714   2.1134   2.3906   2.6473   2.7824   2.8065

          k = 0.1000 0.4041 0.0000 ( 48753 PWs)   bands (ev):

   -61.1064 -61.0950 -61.0895 -54.7783 -35.4353 -35.3390 -35.3064 -35.3019
   -35.2804 -35.2681 -35.2587 -35.2257 -35.1939 -31.0121 -31.0076 -30.9750
   -14.3902 -13.5672 -13.5347 -13.1176 -13.1101 -12.8766 -12.7547 -12.6910
    -5.6966  -5.5912  -5.4684  -5.4160  -5.3519  -4.9583  -4.5025  -4.2780
    -4.1223  -4.0828  -3.5414  -3.5087  -3.4727  -3.2404  -3.0628  -2.9419
    -2.4655  -2.3534  -2.0761  -2.0246  -2.0117  -1.9253  -1.6390  -1.2861
    -1.1858  -0.9031  -0.7961  -0.5938   1.3837   1.5039   1.5888   1.7979
     2.0046   2.0241   2.2643   2.4509   2.4915   2.4980

          k = 0.1000 0.5196 0.0000 ( 48763 PWs)   bands (ev):

   -61.1044 -61.0970 -61.0895 -54.7783 -35.4193 -35.3337 -35.3017 -35.2859
   -35.2850 -35.2749 -35.2681 -35.2464 -35.1939 -31.0136 -31.0083 -30.9750
   -14.1433 -13.8241 -13.4451 -13.2566 -13.1361 -12.8877 -12.7431 -12.6801
    -5.5019  -5.4154  -5.4142  -5.2564  -5.1250  -4.8607  -4.2409  -4.0832
    -4.0421  -3.9839  -3.8462  -3.7000  -3.6176  -3.5396  -3.5094  -2.8091
    -2.8079  -2.4376  -2.2161  -1.8770  -1.8484  -1.7632  -1.6408  -1.4636
    -1.2826  -1.0413  -0.8247  -0.5910   1.3179   1.3642   1.4955   1.7652
     2.0136   2.0561   2.1714   2.2274   2.2550   2.4124

          k = 0.2000 0.3464 0.0000 ( 48776 PWs)   bands (ev):

   -61.1067 -61.0947 -61.0896 -54.7783 -35.4367 -35.3430 -35.3070 -35.3033
   -35.2797 -35.2682 -35.2572 -35.2106 -35.2036 -31.0115 -31.0079 -30.9750
   -14.4230 -13.5838 -13.3928 -13.2602 -13.0585 -12.9415 -12.7032 -12.6652
    -5.7266  -5.5861  -5.4915  -5.4807  -5.4322  -4.7949  -4.6440  -4.2396
    -4.1811  -4.1326  -3.4934  -3.4044  -3.3543  -3.2122  -3.1460  -3.0724
    -2.4435  -2.1347  -2.1140  -2.0202  -1.9737  -1.9195  -1.8788  -1.1555
    -1.1004  -0.8564  -0.8359  -0.5352   1.3214   1.5170   1.6286   1.7089
     1.9590   2.0442   2.3524   2.4564   2.4758   2.5200

          k = 0.2000 0.4619 0.0000 ( 48790 PWs)   bands (ev):

   -61.1044 -61.0970 -61.0896 -54.7783 -35.4152 -35.3454 -35.3018 -35.2871
   -35.2850 -35.2730 -35.2682 -35.2272 -35.2062 -31.0128 -31.0091 -30.9750
   -14.1991 -13.6305 -13.4694 -13.3608 -13.1702 -12.9953 -12.6547 -12.6337
    -5.5464  -5.4631  -5.3728  -5.2440  -5.1694  -4.5626  -4.2662  -4.2614
    -4.1739  -4.1028  -3.7673  -3.5687  -3.5576  -3.5171  -3.3946  -3.1921
    -2.6513  -2.3772  -2.3470  -1.9788  -1.8875  -1.7471  -1.6545  -1.2166
    -1.1894  -0.9763  -0.8553  -0.4748   1.2161   1.3368   1.4703   1.5873
     1.9207   2.0505   2.2286   2.2340   2.2392   2.3665

          k = 0.2000 0.5774 0.0000 ( 48766 PWs)   bands (ev):

   -61.1030 -61.0984 -61.0896 -54.7784 -35.4041 -35.3482 -35.2985 -35.2922
   -35.2882 -35.2682 -35.2587 -35.2444 -35.2065 -31.0132 -31.0096 -30.9751
   -13.9892 -13.8572 -13.3852 -13.3738 -13.2699 -13.0097 -12.6381 -12.6225
    -5.5661  -5.3254  -5.2726  -5.1237  -5.0542  -4.4614  -4.2462  -4.2168
    -4.0642  -3.9991  -3.9054  -3.7854  -3.7398  -3.6212  -3.4852  -3.1259
    -2.8315  -2.4869  -2.4282  -1.9139  -1.8402  -1.6403  -1.5075  -1.3217
    -1.2419  -1.0428  -0.8637  -0.4489   1.2007   1.2323   1.4167   1.5468
     1.9982   2.0419   2.0457   2.1445   2.1724   2.3487

          k = 0.3000 0.5196 0.0000 ( 48786 PWs)   bands (ev):

   -61.1022 -61.0992 -61.0896 -54.7784 -35.3929 -35.3605 -35.2966 -35.2943
   -35.2901 -35.2682 -35.2535 -35.2321 -35.2206 -31.0125 -31.0107 -30.9751
   -13.9727 -13.7206 -13.5838 -13.3574 -13.2299 -13.0890 -12.6017 -12.6008
    -5.6197  -5.2180  -5.2045  -5.0434  -5.0301  -4.4185  -4.2757  -4.1589
    -4.1220  -4.0233  -4.0152  -3.7592  -3.7086  -3.5129  -3.4248  -3.4074
    -3.0448  -2.5103  -2.1595  -2.1131  -1.9538  -1.5250  -1.4487  -1.2358
    -1.2254  -1.0293  -0.8682  -0.3821   1.1336   1.1909   1.3695   1.4538
     1.9125   2.0166   2.0567   2.0924   2.1865   2.2926

     the Fermi energy is    -0.5789 ev

!    total energy              =    -882.72135111 Ry
     Harris-Foulkes estimate   =    -882.72135111 Ry
     estimated scf accuracy    <          5.9E-11 Ry

     The total energy is the sum of the following terms:

     one-electron contribution =   -4065.10286892 Ry
     hartree contribution      =    2037.79671122 Ry
     xc contribution           =    -310.94017940 Ry
     ewald contribution        =    1455.52993407 Ry
     smearing contrib. (-TS)   =      -0.00494808 Ry

     convergence has been achieved in  10 iterations

     negative rho (up, down):  1.279E-04 0.000E+00

     Forces acting on atoms (Ry/au):

     atom    1 type  3   force =     0.00000000    0.00000000    0.00000888
     atom    2 type  1   force =     0.00011862    0.00006849    0.00001038
     atom    3 type  1   force =     0.00000000   -0.00013697    0.00001038
     atom    4 type  1   force =    -0.00011862    0.00006849    0.00001038
     atom    5 type  2   force =    -0.00050602    0.00029215    0.00020092
     atom    6 type  2   force =    -0.00000000   -0.00058430    0.00020092
     atom    7 type  2   force =     0.00050602    0.00029215    0.00020092
     atom    8 type  2   force =     0.00000000    0.00000000   -0.00080028
     atom    9 type  2   force =    -0.00050642    0.00029238   -0.00021066
     atom   10 type  2   force =    -0.00000000   -0.00058476   -0.00021066
     atom   11 type  2   force =     0.00050642    0.00029238   -0.00021066
     atom   12 type  2   force =     0.00000000    0.00000000    0.00078946

     Total force =     0.001904     Total SCF correction =     0.000013


     entering subroutine stress ...


     negative rho (up, down):  1.279E-04 0.000E+00
          total   stress  (Ry/bohr**3)                   (kbar)     P=    3.39
   0.00003514   0.00000000   0.00000000          5.17      0.00      0.00
   0.00000000   0.00003514  -0.00000000          0.00      5.17     -0.00
   0.00000000   0.00000000  -0.00000118          0.00      0.00     -0.17


     bfgs converged in   9 scf cycles and   8 bfgs steps
     (criteria: energy <  1.0E-04, force <  1.0E-03)

     End of BFGS Geometry Optimization

     Final energy   =    -882.7213511070 Ry
Begin final coordinates

ATOMIC_POSITIONS (angstrom)
Nb      -0.000000000   1.875085000   3.183902430
Mo      -1.618391955   4.690875328   3.183903430
Mo       3.247742000   1.868758344   3.183903430
Mo       1.618391955   4.690875328   3.183903430
Se       1.646424843   0.924520533   4.869685109
Se       0.000000000   3.776211934   4.869685109
Se       4.849059157   0.924520533   4.869685109
Se       3.247742000   3.750169000   4.838855585
Se       1.646426199   0.924519750   1.498134262
Se       0.000000000   3.776213501   1.498134262
Se       4.849057801   0.924519750   1.498134262
Se       3.247742000   3.750169000   1.528969583
End final coordinates



     Writing output data file mose2_nb.save
 
     init_run     :      8.63s CPU      8.90s WALL (       1 calls)
     electrons    :   7724.07s CPU   7771.81s WALL (       9 calls)
     update_pot   :     17.21s CPU     19.81s WALL (       8 calls)
     forces       :     45.36s CPU     46.73s WALL (       9 calls)
     stress       :    238.77s CPU    242.31s WALL (       9 calls)

     Called by init_run:
     wfcinit      :      4.05s CPU      4.13s WALL (       1 calls)
     potinit      :      0.67s CPU      0.68s WALL (       1 calls)

     Called by electrons:
     c_bands      :   7126.13s CPU   7142.03s WALL (      96 calls)
     sum_band     :    446.13s CPU    462.55s WALL (      96 calls)
     v_of_rho     :      3.09s CPU      3.10s WALL (     100 calls)
     newd         :    155.65s CPU    169.15s WALL (     100 calls)
     mix_rho      :      3.67s CPU      3.69s WALL (      96 calls)

     Called by c_bands:
     init_us_2    :     12.73s CPU     12.76s WALL (    2954 calls)
     ccgdiagg     :   6867.57s CPU   6882.38s WALL (    1403 calls)
     wfcrot       :    244.84s CPU    245.74s WALL (    1221 calls)

     Called by sum_band:
     sum_band:bec :      0.21s CPU      0.21s WALL (    1344 calls)
     addusdens    :    253.05s CPU    268.93s WALL (      96 calls)

     Called by *cgdiagg:
     h_psi        :   3462.57s CPU   3471.17s WALL (  303736 calls)
     s_psi        :   2198.70s CPU   2202.36s WALL (  606251 calls)
     cdiaghg      :      1.64s CPU      1.77s WALL (    1221 calls)

     Called by h_psi:
     add_vuspsi   :   1175.55s CPU   1177.19s WALL (  303736 calls)
     h_1psi       :   4292.14s CPU   4302.02s WALL (  302515 calls)

     General routines
     calbec       :   2221.51s CPU   2225.32s WALL (  608225 calls)
     fft          :     19.79s CPU     19.87s WALL (     964 calls)
     ffts         :      0.41s CPU      0.42s WALL (     196 calls)
     fftw         :    691.22s CPU    694.02s WALL (  840378 calls)
     interpolate  :      3.51s CPU      3.57s WALL (     196 calls)
     davcio       :      0.03s CPU      1.04s WALL (      14 calls)
 
     Parallel routines
     fft_scatter  :    331.14s CPU    332.87s WALL (  841538 calls)
 
     PWSCF        :     2h14m CPU        2h15m WALL

 
   This run was terminated on:  16:27:14  26Apr2017            

=------------------------------------------------------------------------------=
   JOB DONE.
=------------------------------------------------------------------------------=
