
     Program PWSCF v.5.4.0 starts on 26Apr2017 at 14:14:41 

     This program is part of the open-source Quantum ESPRESSO suite
     for quantum simulation of materials; please cite
         "P. Giannozzi et al., J. Phys.:Condens. Matter 21 395502 (2009);
          URL http://www.quantum-espresso.org", 
     in publications or presentations arising from this work. More details at
     http://www.quantum-espresso.org/quote

     Parallel version (MPI), running on    24 processors
     R & G space division:  proc/nbgrp/npool/nimage =      24
     Waiting for input...
     Reading input from standard input
Warning: card &CELL ignored
Warning: card  CELL_DYNAMICS = 'BFGS', ignored
Warning: card  PRESS=0.1D0, ignored
Warning: card / ignored

     Current dimensions of program PWSCF are:
     Max number of different atomic species (ntypx) = 10
     Max number of k-points (npk) =  40000
     Max angular momentum in pseudopotentials (lmaxx) =  3

     Subspace diagonalization in iterative solution of the eigenvalue problem:
     a serial algorithm will be used

 
     Parallelization info
     --------------------
     sticks:   dense  smooth     PW     G-vecs:    dense   smooth      PW
     Min         302     121     32                64272    16243    2260
     Max         303     122     33                64287    16271    2275
     Sum        7267    2905    769              1542757   390237   54333
 


     bravais-lattice index     =            4
     lattice parameter (alat)  =      12.2747  a.u.
     unit-cell volume          =    4931.5212 (a.u.)^3
     number of atoms/cell      =           12
     number of atomic types    =            3
     number of electrons       =       105.00
     number of Kohn-Sham states=           64
     kinetic-energy cutoff     =      70.0000  Ry
     charge density cutoff     =     700.0000  Ry
     convergence threshold     =      1.0E-08
     mixing beta               =       0.7000
     number of iterations used =            8  plain     mixing
     Exchange-correlation      =  SLA  PZ   NOGX NOGC ( 1  1  0  0 0 0)
     nstep                     =           50


     celldm(1)=  12.274692  celldm(2)=   0.000000  celldm(3)=   3.079062
     celldm(4)=   0.000000  celldm(5)=   0.000000  celldm(6)=   0.000000

     crystal axes: (cart. coord. in units of alat)
               a(1) = (   1.000000   0.000000   0.000000 )  
               a(2) = (  -0.500000   0.866025   0.000000 )  
               a(3) = (   0.000000   0.000000   3.079062 )  

     reciprocal axes: (cart. coord. in units 2 pi/alat)
               b(1) = (  1.000000  0.577350  0.000000 )  
               b(2) = (  0.000000  1.154701  0.000000 )  
               b(3) = (  0.000000  0.000000  0.324774 )  


     PseudoPot. # 1 for Mo read from file:
     /afs/crc.nd.edu/user/j/jencomen/espresso/pseudo/Mo_LDA.UPF
     MD5 check sum: f5ddb34c5c8cdf9395e9f47ee8c17b30
     Pseudo is Ultrasoft + core correction, Zval = 14.0
     Generated by new atomic code, or converted to UPF format
     Using radial grid of  889 points,  6 beta functions with: 
                l(1) =   0
                l(2) =   0
                l(3) =   1
                l(4) =   1
                l(5) =   2
                l(6) =   2
     Q(r) pseudized with  6 coefficients,  rinner =    1.000   1.000   1.000
                                                       1.000   1.000

     PseudoPot. # 2 for Se read from file:
     /afs/crc.nd.edu/user/j/jencomen/espresso/pseudo/Se_LDA.UPF
     MD5 check sum: 29da00cbf48820a058e3666752a4b224
     Pseudo is Ultrasoft + core correction, Zval =  6.0
     Generated by new atomic code, or converted to UPF format
     Using radial grid of  877 points,  6 beta functions with: 
                l(1) =   0
                l(2) =   0
                l(3) =   1
                l(4) =   1
                l(5) =   2
                l(6) =   2
     Q(r) pseudized with  8 coefficients,  rinner =    1.300   1.300   1.300
                                                       1.300   1.300

     PseudoPot. # 3 for Mn read from file:
     /afs/crc.nd.edu/user/j/jencomen/espresso/pseudo/Mn_LDA.UPF
     MD5 check sum: cd4dac482ae0c15019b63d17a2a4ecee
     Pseudo is Ultrasoft + core correction, Zval = 15.0
     Generated by new atomic code, or converted to UPF format
     Using radial grid of  859 points,  6 beta functions with: 
                l(1) =   0
                l(2) =   0
                l(3) =   1
                l(4) =   1
                l(5) =   2
                l(6) =   2
     Q(r) pseudized with  8 coefficients,  rinner =    0.950   0.950   0.950
                                                       0.950   0.950

     atomic species   valence    mass     pseudopotential
        Mo            14.00    95.95000     Mo( 1.00)
        Se             6.00    78.97100     Se( 1.00)
        Mn            15.00    54.93800     Mn( 1.00)

      6 Sym. Ops. (no inversion) found ( 4 have fractional translation)



   Cartesian axes

     site n.     atom                  positions (alat units)
         1           Mn  tau(   1) = (   0.0000000   0.2886750   0.4901723  )
         2           Mo  tau(   2) = (  -0.2499999   0.7216875   0.4901723  )
         3           Mo  tau(   3) = (   0.4999997   0.2886750   0.4901723  )
         4           Mo  tau(   4) = (   0.2499999   0.7216875   0.4901723  )
         5           Se  tau(   5) = (   0.2499999   0.1443374   0.7431011  )
         6           Se  tau(   6) = (   0.0000000   0.5773499   0.7431011  )
         7           Se  tau(   7) = (   0.7499996   0.1443374   0.7431011  )
         8           Se  tau(   8) = (   0.4999997   0.5773499   0.7431011  )
         9           Se  tau(   9) = (   0.2499999   0.1443374   0.2372435  )
        10           Se  tau(  10) = (   0.0000000   0.5773499   0.2372435  )
        11           Se  tau(  11) = (   0.7499996   0.1443374   0.2372435  )
        12           Se  tau(  12) = (   0.4999997   0.5773499   0.2372435  )

     number of k points=    14  gaussian smearing, width (Ry)=  0.0100
                       cart. coord. in units 2pi/alat
        k(    1) = (   0.0000000   0.0000000   0.0000000), wk =   0.0200000
        k(    2) = (   0.0000000   0.1154701   0.0000000), wk =   0.1200000
        k(    3) = (   0.0000000   0.2309401   0.0000000), wk =   0.1200000
        k(    4) = (   0.0000000   0.3464102   0.0000000), wk =   0.1200000
        k(    5) = (   0.0000000   0.4618802   0.0000000), wk =   0.1200000
        k(    6) = (   0.0000000  -0.5773503   0.0000000), wk =   0.0600000
        k(    7) = (   0.1000000   0.1732051   0.0000000), wk =   0.1200000
        k(    8) = (   0.1000000   0.2886751   0.0000000), wk =   0.2400000
        k(    9) = (   0.1000000   0.4041452   0.0000000), wk =   0.2400000
        k(   10) = (   0.1000000   0.5196152   0.0000000), wk =   0.2400000
        k(   11) = (   0.2000000   0.3464102   0.0000000), wk =   0.1200000
        k(   12) = (   0.2000000   0.4618802   0.0000000), wk =   0.2400000
        k(   13) = (   0.2000000   0.5773503   0.0000000), wk =   0.1200000
        k(   14) = (   0.3000000   0.5196152   0.0000000), wk =   0.1200000

     Dense  grid:  1542757 G-vectors     FFT dimensions: ( 108, 108, 320)

     Smooth grid:   390237 G-vectors     FFT dimensions: (  72,  72, 216)

     Largest allocated arrays     est. size (Mb)     dimensions
        Kohn-Sham Wavefunctions         2.02 Mb     (    2064,   64)
        NL pseudopotentials             6.80 Mb     (    2064,  216)
        Each V/rho on FFT grid          2.49 Mb     (  163296)
        Each G-vector array             0.49 Mb     (   64287)
        G-vector shells                 0.20 Mb     (   26242)
     Largest temporary arrays     est. size (Mb)     dimensions
        Each subspace H/S matrix        0.06 Mb     (      64,   64)
        Each <psi_i|beta_j> matrix      0.21 Mb     (     216,   64)
        Arrays for rho mixing          19.93 Mb     (  163296,    8)

     Check: negative/imaginary core charge=   -0.000003    0.000000

     Initial potential from superposition of free atoms
     Check: negative starting charge=   -0.000724

     starting charge  104.49690, renormalised to  105.00000

     negative rho (up, down):  7.271E-04 0.000E+00
     Starting wfc are   84 randomized atomic wfcs

     total cpu time spent up to now is       12.1 secs

     per-process dynamical memory:   105.0 Mb

     Self-consistent Calculation

     iteration #  1     ecut=    70.00 Ry     beta=0.70
     CG style diagonalization
     ethr =  1.00E-02,  avg # of iterations =  2.6

     negative rho (up, down):  5.311E-05 0.000E+00

     total cpu time spent up to now is       79.3 secs

     total energy              =    -974.17750988 Ry
     Harris-Foulkes estimate   =    -975.82151372 Ry
     estimated scf accuracy    <       1.96336709 Ry

     iteration #  2     ecut=    70.00 Ry     beta=0.70
     CG style diagonalization
     ethr =  1.87E-03,  avg # of iterations =  4.3

     negative rho (up, down):  1.119E-05 0.000E+00

     total cpu time spent up to now is      169.4 secs

     total energy              =    -974.29714557 Ry
     Harris-Foulkes estimate   =    -981.50960253 Ry
     estimated scf accuracy    <      28.86573096 Ry

     iteration #  3     ecut=    70.00 Ry     beta=0.70
     CG style diagonalization
     ethr =  1.87E-03,  avg # of iterations =  3.8

     negative rho (up, down):  7.242E-06 0.000E+00

     total cpu time spent up to now is      245.0 secs

     total energy              =    -975.11505305 Ry
     Harris-Foulkes estimate   =    -975.12146352 Ry
     estimated scf accuracy    <       9.69076298 Ry

     iteration #  4     ecut=    70.00 Ry     beta=0.70
     CG style diagonalization
     ethr =  1.87E-03,  avg # of iterations =  3.5

     negative rho (up, down):  3.010E-04 0.000E+00

     total cpu time spent up to now is      315.5 secs

     total energy              =    -976.04760262 Ry
     Harris-Foulkes estimate   =    -975.50939501 Ry
     estimated scf accuracy    <       4.01305554 Ry

     iteration #  5     ecut=    70.00 Ry     beta=0.70
     CG style diagonalization
     ethr =  1.87E-03,  avg # of iterations =  3.2

     negative rho (up, down):  1.128E-03 0.000E+00

     total cpu time spent up to now is      378.0 secs

     total energy              =    -976.66735623 Ry
     Harris-Foulkes estimate   =    -976.49576418 Ry
     estimated scf accuracy    <      11.38645612 Ry

     iteration #  6     ecut=    70.00 Ry     beta=0.70
     CG style diagonalization
     ethr =  1.87E-03,  avg # of iterations =  3.0

     negative rho (up, down):  8.819E-03 0.000E+00

     total cpu time spent up to now is      436.7 secs

     total energy              =    -977.55823410 Ry
     Harris-Foulkes estimate   =    -976.70357346 Ry
     estimated scf accuracy    <      12.83955541 Ry

     iteration #  7     ecut=    70.00 Ry     beta=0.70
     CG style diagonalization
     ethr =  1.87E-03,  avg # of iterations =  3.1

     negative rho (up, down):  6.049E-03 0.000E+00

     total cpu time spent up to now is      498.0 secs

     total energy              =    -977.12117687 Ry
     Harris-Foulkes estimate   =    -977.67677156 Ry
     estimated scf accuracy    <      18.09108937 Ry

     iteration #  8     ecut=    70.00 Ry     beta=0.70
     CG style diagonalization
     ethr =  1.87E-03,  avg # of iterations =  3.0

     negative rho (up, down):  6.014E-03 0.000E+00

     total cpu time spent up to now is      557.1 secs

     total energy              =    -976.92143360 Ry
     Harris-Foulkes estimate   =    -977.14681296 Ry
     estimated scf accuracy    <      16.72877404 Ry

     iteration #  9     ecut=    70.00 Ry     beta=0.70
     CG style diagonalization
     ethr =  1.87E-03,  avg # of iterations =  3.0

     negative rho (up, down):  6.666E-03 0.000E+00

     total cpu time spent up to now is      615.8 secs

     total energy              =    -976.51514149 Ry
     Harris-Foulkes estimate   =    -976.93027425 Ry
     estimated scf accuracy    <      15.84950213 Ry

     iteration # 10     ecut=    70.00 Ry     beta=0.70
     CG style diagonalization
     ethr =  1.87E-03,  avg # of iterations =  3.0

     negative rho (up, down):  6.789E-03 0.000E+00

     total cpu time spent up to now is      674.4 secs

     total energy              =    -976.71631065 Ry
     Harris-Foulkes estimate   =    -976.52994714 Ry
     estimated scf accuracy    <      14.12157035 Ry

     iteration # 11     ecut=    70.00 Ry     beta=0.70
     CG style diagonalization
     ethr =  1.87E-03,  avg # of iterations =  3.0

     negative rho (up, down):  6.956E-03 0.000E+00

     total cpu time spent up to now is      732.9 secs

     total energy              =    -976.73991068 Ry
     Harris-Foulkes estimate   =    -976.72123111 Ry
     estimated scf accuracy    <      14.62898382 Ry

     iteration # 12     ecut=    70.00 Ry     beta=0.70
     CG style diagonalization
     ethr =  1.87E-03,  avg # of iterations =  3.0

     negative rho (up, down):  4.198E-03 0.000E+00

     total cpu time spent up to now is      791.4 secs

     total energy              =    -971.61840427 Ry
     Harris-Foulkes estimate   =    -976.74132741 Ry
     estimated scf accuracy    <      14.58108282 Ry

     iteration # 13     ecut=    70.00 Ry     beta=0.70
     CG style diagonalization
     c_bands:  1 eigenvalues not converged
     c_bands:  1 eigenvalues not converged
     ethr =  1.87E-03,  avg # of iterations =  5.3

     negative rho (up, down):  2.484E-06 0.000E+00

     total cpu time spent up to now is      900.6 secs

     total energy              =    -975.02272564 Ry
     Harris-Foulkes estimate   =    -979.14699119 Ry
     estimated scf accuracy    <      26.49036027 Ry

     iteration # 14     ecut=    70.00 Ry     beta=0.70
     CG style diagonalization
     ethr =  1.87E-03,  avg # of iterations =  3.9

     negative rho (up, down):  7.944E-06 0.000E+00

     total cpu time spent up to now is      980.4 secs

     total energy              =    -975.45291890 Ry
     Harris-Foulkes estimate   =    -975.91424948 Ry
     estimated scf accuracy    <       5.87541743 Ry

     iteration # 15     ecut=    70.00 Ry     beta=0.70
     CG style diagonalization
     ethr =  1.87E-03,  avg # of iterations =  3.1

     negative rho (up, down):  4.720E-04 0.000E+00

     total cpu time spent up to now is     1041.1 secs

     total energy              =    -975.49734625 Ry
     Harris-Foulkes estimate   =    -975.62788547 Ry
     estimated scf accuracy    <       0.88961836 Ry

     iteration # 16     ecut=    70.00 Ry     beta=0.70
     CG style diagonalization
     ethr =  8.47E-04,  avg # of iterations =  3.3

     negative rho (up, down):  4.169E-04 0.000E+00

     total cpu time spent up to now is     1105.8 secs

     total energy              =    -975.58926894 Ry
     Harris-Foulkes estimate   =    -975.64981194 Ry
     estimated scf accuracy    <       0.59662416 Ry

     iteration # 17     ecut=    70.00 Ry     beta=0.70
     CG style diagonalization
     ethr =  5.68E-04,  avg # of iterations =  3.1

     negative rho (up, down):  8.165E-04 0.000E+00

     total cpu time spent up to now is     1166.0 secs

     total energy              =    -975.64998292 Ry
     Harris-Foulkes estimate   =    -975.65052989 Ry
     estimated scf accuracy    <       0.00431566 Ry

     iteration # 18     ecut=    70.00 Ry     beta=0.70
     CG style diagonalization
     c_bands:  1 eigenvalues not converged
     c_bands:  2 eigenvalues not converged
     c_bands:  1 eigenvalues not converged
     c_bands:  3 eigenvalues not converged
     c_bands:  2 eigenvalues not converged
     c_bands:  3 eigenvalues not converged
     c_bands:  3 eigenvalues not converged
     c_bands:  2 eigenvalues not converged
     c_bands:  1 eigenvalues not converged
     c_bands:  3 eigenvalues not converged
     c_bands:  1 eigenvalues not converged
     c_bands:  1 eigenvalues not converged
     ethr =  4.11E-06,  avg # of iterations =  5.5

     negative rho (up, down):  9.050E-04 0.000E+00

     total cpu time spent up to now is     1281.2 secs

     total energy              =    -975.65959053 Ry
     Harris-Foulkes estimate   =    -975.65915208 Ry
     estimated scf accuracy    <       0.01909672 Ry

     iteration # 19     ecut=    70.00 Ry     beta=0.70
     CG style diagonalization
     c_bands:  1 eigenvalues not converged
     c_bands:  1 eigenvalues not converged
     c_bands:  2 eigenvalues not converged
     c_bands:  1 eigenvalues not converged
     c_bands:  1 eigenvalues not converged
     c_bands:  1 eigenvalues not converged
     ethr =  4.11E-06,  avg # of iterations =  3.6

     negative rho (up, down):  9.019E-04 0.000E+00

     total cpu time spent up to now is     1353.7 secs

     total energy              =    -975.65570136 Ry
     Harris-Foulkes estimate   =    -975.66077100 Ry
     estimated scf accuracy    <       0.05606610 Ry

     iteration # 20     ecut=    70.00 Ry     beta=0.70
     CG style diagonalization
     c_bands:  1 eigenvalues not converged
     ethr =  4.11E-06,  avg # of iterations =  3.3

     negative rho (up, down):  9.161E-04 0.000E+00

     total cpu time spent up to now is     1419.6 secs

     total energy              =    -975.65846824 Ry
     Harris-Foulkes estimate   =    -975.65868505 Ry
     estimated scf accuracy    <       0.00289820 Ry

     iteration # 21     ecut=    70.00 Ry     beta=0.70
     CG style diagonalization
     ethr =  2.76E-06,  avg # of iterations =  3.1

     negative rho (up, down):  9.253E-04 0.000E+00

     total cpu time spent up to now is     1479.6 secs

     total energy              =    -975.65858553 Ry
     Harris-Foulkes estimate   =    -975.65858259 Ry
     estimated scf accuracy    <       0.00029435 Ry

     iteration # 22     ecut=    70.00 Ry     beta=0.70
     CG style diagonalization
     ethr =  2.80E-07,  avg # of iterations =  3.4

     negative rho (up, down):  9.157E-04 0.000E+00

     total cpu time spent up to now is     1547.8 secs

     total energy              =    -975.65848885 Ry
     Harris-Foulkes estimate   =    -975.65869839 Ry
     estimated scf accuracy    <       0.00347049 Ry

     iteration # 23     ecut=    70.00 Ry     beta=0.70
     CG style diagonalization
     ethr =  2.80E-07,  avg # of iterations =  3.2

     negative rho (up, down):  9.106E-04 0.000E+00

     total cpu time spent up to now is     1612.0 secs

     total energy              =    -975.65857545 Ry
     Harris-Foulkes estimate   =    -975.65858581 Ry
     estimated scf accuracy    <       0.00011623 Ry

     iteration # 24     ecut=    70.00 Ry     beta=0.70
     CG style diagonalization
     ethr =  1.11E-07,  avg # of iterations =  3.1

     negative rho (up, down):  9.117E-04 0.000E+00

     total cpu time spent up to now is     1674.2 secs

     total energy              =    -975.65858637 Ry
     Harris-Foulkes estimate   =    -975.65858674 Ry
     estimated scf accuracy    <       0.00000147 Ry

     iteration # 25     ecut=    70.00 Ry     beta=0.70
     CG style diagonalization
     ethr =  1.40E-09,  avg # of iterations =  9.0

     negative rho (up, down):  9.118E-04 0.000E+00

     total cpu time spent up to now is     1865.3 secs

     total energy              =    -975.65860319 Ry
     Harris-Foulkes estimate   =    -975.65860375 Ry
     estimated scf accuracy    <       0.00000500 Ry

     iteration # 26     ecut=    70.00 Ry     beta=0.70
     CG style diagonalization
     ethr =  1.40E-09,  avg # of iterations =  3.7

     negative rho (up, down):  9.120E-04 0.000E+00

     total cpu time spent up to now is     1940.4 secs

     total energy              =    -975.65860378 Ry
     Harris-Foulkes estimate   =    -975.65860375 Ry
     estimated scf accuracy    <       0.00000011 Ry

     iteration # 27     ecut=    70.00 Ry     beta=0.70
     CG style diagonalization
     ethr =  1.06E-10,  avg # of iterations =  5.9

     negative rho (up, down):  9.120E-04 0.000E+00

     total cpu time spent up to now is     2063.6 secs

     total energy              =    -975.65860397 Ry
     Harris-Foulkes estimate   =    -975.65860404 Ry
     estimated scf accuracy    <       0.00000006 Ry

     iteration # 28     ecut=    70.00 Ry     beta=0.70
     CG style diagonalization
     ethr =  5.34E-11,  avg # of iterations =  4.6

     negative rho (up, down):  9.120E-04 0.000E+00

     total cpu time spent up to now is     2158.8 secs

     total energy              =    -975.65860407 Ry
     Harris-Foulkes estimate   =    -975.65860402 Ry
     estimated scf accuracy    <       0.00000008 Ry

     iteration # 29     ecut=    70.00 Ry     beta=0.70
     CG style diagonalization
     ethr =  5.34E-11,  avg # of iterations =  3.2

     negative rho (up, down):  9.121E-04 0.000E+00

     total cpu time spent up to now is     2223.7 secs

     total energy              =    -975.65860408 Ry
     Harris-Foulkes estimate   =    -975.65860408 Ry
     estimated scf accuracy    <       0.00000004 Ry

     iteration # 30     ecut=    70.00 Ry     beta=0.70
     CG style diagonalization
     ethr =  3.62E-11,  avg # of iterations =  3.1

     negative rho (up, down):  9.121E-04 0.000E+00

     total cpu time spent up to now is     2285.6 secs

     total energy              =    -975.65860408 Ry
     Harris-Foulkes estimate   =    -975.65860408 Ry
     estimated scf accuracy    <       0.00000001 Ry

     iteration # 31     ecut=    70.00 Ry     beta=0.70
     CG style diagonalization
     ethr =  1.12E-11,  avg # of iterations =  3.7

     negative rho (up, down):  9.121E-04 0.000E+00

     total cpu time spent up to now is     2361.5 secs

     End of self-consistent calculation

          k = 0.0000 0.0000 0.0000 ( 48761 PWs)   bands (ev):

   -78.6840 -61.2359 -61.2135 -61.2135 -47.8775 -47.8083 -47.8083 -35.5750
   -35.4805 -35.4770 -35.4770 -35.4292 -35.4291 -35.3355 -35.2892 -35.2891
   -15.0854 -14.0437 -13.1827 -13.1376 -13.1375 -13.0561 -12.8454 -12.8453
    -6.5759  -6.4606  -6.4605  -6.1202  -5.7092  -5.4764  -5.4764  -4.4096
    -4.4096  -4.3763  -3.4606  -3.2209  -3.2209  -2.6298  -2.5963  -2.5963
    -2.5386  -2.4120  -2.4119  -1.6578  -1.6578  -1.4632  -1.4632  -1.2869
    -1.1827  -1.1827  -1.1238  -0.9766   0.5159   0.5159   0.9680   1.4435
     1.7283   1.7283   1.7694   1.7695   2.6617   2.6618   2.6665   2.6665

          k = 0.0000 0.1155 0.0000 ( 48801 PWs)   bands (ev):

   -78.6840 -61.2354 -61.2140 -61.2135 -47.8775 -47.8083 -47.8083 -35.5698
   -35.4794 -35.4761 -35.4734 -35.4303 -35.4291 -35.3379 -35.2956 -35.2904
   -15.0491 -14.0223 -13.2267 -13.1630 -13.1425 -13.0669 -12.8713 -12.8447
    -6.5161  -6.3983  -6.3694  -6.0742  -5.6618  -5.4672  -5.4082  -4.4194
    -4.3999  -4.3600  -3.4730  -3.2859  -3.1987  -2.6924  -2.6729  -2.5741
    -2.5707  -2.4058  -2.3684  -1.7080  -1.7075  -1.6922  -1.6183  -1.3874
    -1.2368  -1.0685  -1.0416  -0.9816   0.5414   0.5446   0.9404   1.4525
     1.5837   1.7315   1.7328   1.7783   2.4700   2.5650   2.6012   2.7236

          k = 0.0000 0.2309 0.0000 ( 48770 PWs)   bands (ev):

   -78.6840 -61.2340 -61.2154 -61.2135 -47.8775 -47.8083 -47.8082 -35.5554
   -35.4762 -35.4729 -35.4630 -35.4335 -35.4291 -35.3456 -35.3141 -35.2935
   -14.9421 -13.9590 -13.4032 -13.1777 -13.1554 -13.1141 -12.9266 -12.8430
    -6.3553  -6.2222  -6.1127  -5.9372  -5.5501  -5.4412  -5.1902  -4.4506
    -4.3700  -4.3220  -3.5180  -3.4589  -3.1295  -2.9631  -2.8594  -2.5262
    -2.5060  -2.3781  -2.3086  -2.1958  -2.1604  -1.8438  -1.5595  -1.5141
    -1.3335  -1.0146  -1.0039  -0.9977   0.5806   0.6229   0.8732   1.2512
     1.4606   1.6443   1.7411   1.8099   2.0693   2.3227   2.4377   2.8675

          k = 0.0000 0.3464 0.0000 ( 48772 PWs)   bands (ev):

   -78.6840 -61.2319 -61.2175 -61.2135 -47.8775 -47.8083 -47.8082 -35.5365
   -35.4715 -35.4645 -35.4470 -35.4383 -35.4292 -35.3589 -35.3425 -35.2965
   -14.7692 -13.8573 -13.6635 -13.2250 -13.1894 -13.1712 -12.9645 -12.8410
    -6.1295  -5.9688  -5.7949  -5.6806  -5.4140  -5.4053  -4.8352  -4.5173
    -4.3134  -4.2701  -3.6810  -3.5943  -3.3587  -3.1236  -3.0142  -2.7787
    -2.7347  -2.4341  -2.3301  -2.3218  -2.2372  -2.0236  -1.5933  -1.5871
    -1.4859  -1.0767  -1.0124  -0.9990   0.5899   0.7298   0.7912   0.9222
     1.4644   1.5435   1.6928   1.7392   1.8538   2.0874   2.2165   2.6061

          k = 0.0000 0.4619 0.0000 ( 48764 PWs)   bands (ev):

   -78.6840 -61.2296 -61.2198 -61.2135 -47.8775 -47.8083 -47.8082 -35.5216
   -35.4662 -35.4457 -35.4436 -35.4292 -35.4277 -35.3771 -35.3766 -35.2984
   -14.5398 -13.9606 -13.7244 -13.3801 -13.1981 -13.1838 -12.9793 -12.8393
    -5.9045  -5.7190  -5.5551  -5.3724  -5.3391  -5.2877  -4.5697  -4.4057
    -4.2153  -4.2126  -3.8746  -3.7957  -3.6689  -3.4564  -3.2928  -3.1994
    -2.8714  -2.3414  -2.3405  -2.1591  -2.1470  -2.1288  -1.7397  -1.6792
    -1.5550  -1.2121  -1.0300  -1.0113   0.5720   0.7167   0.7181   0.8285
     1.4041   1.4928   1.5216   1.7157   1.8737   1.9918   2.0119   2.3272

          k = 0.0000-0.5774 0.0000 ( 48748 PWs)   bands (ev):

   -78.6840 -61.2284 -61.2210 -61.2135 -47.8775 -47.8082 -47.8082 -35.5166
   -35.4634 -35.4464 -35.4292 -35.4209 -35.4142 -35.4072 -35.3896 -35.2990
   -14.2992 -14.2263 -13.6050 -13.5096 -13.2014 -13.1886 -12.9831 -12.8387
    -5.8003  -5.6074  -5.4347  -5.3589  -5.2318  -5.2133  -4.4807  -4.2488
    -4.1162  -4.0938  -4.0254  -3.9360  -3.7465  -3.7000  -3.5607  -3.4082
    -2.7825  -2.4154  -2.3025  -2.1542  -2.0222  -1.9752  -1.9275  -1.8257
    -1.4407  -1.3594  -1.0387  -1.0170   0.5582   0.6534   0.6863   0.8696
     1.3335   1.4901   1.5287   1.6971   1.8327   1.9535   2.0627   2.1116

          k = 0.1000 0.1732 0.0000 ( 48791 PWs)   bands (ev):

   -78.6840 -61.2344 -61.2149 -61.2135 -47.8775 -47.8083 -47.8083 -35.5599
   -35.4773 -35.4746 -35.4660 -35.4324 -35.4292 -35.3432 -35.3071 -35.2933
   -14.9775 -13.9799 -13.3009 -13.2678 -13.1027 -13.0923 -12.9236 -12.8353
    -6.4114  -6.2599  -6.2081  -5.9831  -5.6032  -5.4135  -5.2797  -4.4327
    -4.3878  -4.3337  -3.5079  -3.3730  -3.1887  -2.8747  -2.7956  -2.5401
    -2.5246  -2.4023  -2.3095  -2.1643  -1.8288  -1.8194  -1.6310  -1.5528
    -1.1914  -1.1094  -0.9962  -0.9585   0.5522   0.6134   0.8944   1.3512
     1.4486   1.6612   1.7283   1.8182   2.1899   2.3995   2.4801   2.8237

          k = 0.1000 0.2887 0.0000 ( 48778 PWs)   bands (ev):

   -78.6840 -61.2327 -61.2167 -61.2135 -47.8775 -47.8083 -47.8082 -35.5425
   -35.4733 -35.4706 -35.4517 -35.4365 -35.4292 -35.3556 -35.3273 -35.2977
   -14.8375 -13.8973 -13.5105 -13.3409 -13.1602 -13.0650 -12.9972 -12.8175
    -6.2234  -6.0214  -5.9205  -5.7972  -5.5655  -5.2777  -5.0070  -4.4709
    -4.3644  -4.2916  -3.6029  -3.5066  -3.2075  -3.1659  -3.0007  -2.7494
    -2.4863  -2.4368  -2.3484  -2.2115  -2.2025  -2.0206  -1.7854  -1.4998
    -1.2787  -1.1131  -1.0417  -0.9178   0.5610   0.6776   0.8440   1.0290
     1.3973   1.5807   1.6983   1.8188   1.9066   2.1846   2.2725   2.7321

          k = 0.1000 0.4041 0.0000 ( 48753 PWs)   bands (ev):

   -78.6840 -61.2304 -61.2190 -61.2135 -47.8775 -47.8083 -47.8082 -35.5240
   -35.4681 -35.4603 -35.4417 -35.4322 -35.4292 -35.3772 -35.3519 -35.3011
   -14.6360 -13.7915 -13.7794 -13.3863 -13.2907 -13.0407 -13.0405 -12.8013
    -5.9823  -5.7623  -5.6397  -5.5424  -5.4833  -5.1212  -4.6114  -4.5439
    -4.3171  -4.2379  -3.7652  -3.6337  -3.6296  -3.3032  -3.2843  -3.0823
    -2.7215  -2.4926  -2.2865  -2.2441  -2.1720  -2.0721  -1.8372  -1.5518
    -1.4006  -1.1497  -1.1160  -0.9016   0.5504   0.6660   0.7704   0.8559
     1.3345   1.4888   1.5877   1.6457   1.9316   2.0379   2.0799   2.3966

          k = 0.1000 0.5196 0.0000 ( 48763 PWs)   bands (ev):

   -78.6840 -61.2284 -61.2210 -61.2135 -47.8775 -47.8082 -47.8082 -35.5131
   -35.4634 -35.4464 -35.4392 -35.4292 -35.4141 -35.4031 -35.3753 -35.3027
   -14.3859 -14.0891 -13.6386 -13.4482 -13.4104 -13.0572 -13.0291 -12.7919
    -5.7838  -5.5763  -5.5285  -5.4438  -5.2237  -5.0023  -4.5348  -4.2753
    -4.1905  -4.1626  -4.0320  -3.9008  -3.7204  -3.6957  -3.6231  -3.0436
    -2.9824  -2.5831  -2.3762  -2.0992  -2.0587  -1.9183  -1.8765  -1.7126
    -1.4348  -1.2943  -1.1314  -0.8955   0.5266   0.6329   0.6421   0.8881
     1.2850   1.4041   1.5559   1.6122   1.8054   2.0069   2.0642   2.1490

          k = 0.2000 0.3464 0.0000 ( 48776 PWs)   bands (ev):

   -78.6840 -61.2307 -61.2187 -61.2135 -47.8775 -47.8082 -47.8082 -35.5237
   -35.4687 -35.4674 -35.4410 -35.4329 -35.4292 -35.3773 -35.3401 -35.3052
   -14.6687 -13.7982 -13.6137 -13.5738 -13.2230 -13.1095 -12.9871 -12.7766
    -6.0146  -5.7218  -5.6928  -5.6147  -5.5664  -4.9929  -4.7352  -4.4959
    -4.3896  -4.2624  -3.6976  -3.5770  -3.5465  -3.3050  -3.3012  -3.1796
    -2.5804  -2.4085  -2.3056  -2.2374  -2.1530  -2.0772  -2.0322  -1.4410
    -1.2432  -1.2228  -1.1183  -0.8468   0.5168   0.6313   0.7898   0.8809
     1.2576   1.4936   1.5812   1.6328   1.9531   2.0735   2.1215   2.4799

          k = 0.2000 0.4619 0.0000 ( 48790 PWs)   bands (ev):

   -78.6840 -61.2284 -61.2210 -61.2135 -47.8775 -47.8082 -47.8082 -35.5054
   -35.4634 -35.4586 -35.4463 -35.4292 -35.4140 -35.4024 -35.3559 -35.3111
   -14.4449 -13.8836 -13.6688 -13.6459 -13.3429 -13.1767 -12.9383 -12.7464
    -5.7571  -5.6481  -5.5075  -5.4399  -5.2893  -4.7417  -4.5558  -4.3946
    -4.3568  -4.2664  -4.0021  -3.7839  -3.7218  -3.6585  -3.4675  -3.3015
    -2.7955  -2.6054  -2.4580  -2.2153  -2.0784  -1.9599  -1.8294  -1.4828
    -1.3356  -1.2415  -1.2054  -0.7907   0.4628   0.5733   0.6206   0.9016
     1.1633   1.3738   1.4860   1.5726   1.7559   1.9640   2.1543   2.2137

          k = 0.2000 0.5774 0.0000 ( 48766 PWs)   bands (ev):

   -78.6840 -61.2270 -61.2224 -61.2135 -47.8775 -47.8082 -47.8082 -35.4981
   -35.4601 -35.4496 -35.4411 -35.4339 -35.4292 -35.3918 -35.3698 -35.3131
   -14.2089 -14.1426 -13.6654 -13.5512 -13.4656 -13.1927 -12.9218 -12.7356
    -5.6597  -5.6072  -5.4145  -5.3493  -5.1396  -4.6266  -4.5636  -4.3703
    -4.3193  -4.2408  -4.0696  -3.8790  -3.8204  -3.7414  -3.6825  -3.2848
    -2.9287  -2.7328  -2.4931  -2.1654  -2.0471  -1.8698  -1.6638  -1.6032
    -1.3762  -1.3039  -1.2081  -0.7681   0.4344   0.5565   0.5618   0.8994
     1.1357   1.3307   1.4581   1.5627   1.6599   1.9108   2.0430   2.2575

          k = 0.3000 0.5196 0.0000 ( 48786 PWs)   bands (ev):

   -78.6840 -61.2261 -61.2233 -61.2135 -47.8775 -47.8082 -47.8082 -35.4855
   -35.4582 -35.4559 -35.4516 -35.4364 -35.4292 -35.3868 -35.3629 -35.3205
   -14.2086 -13.9557 -13.8990 -13.5378 -13.3988 -13.2975 -12.8842 -12.7144
    -5.7068  -5.4879  -5.3510  -5.2890  -5.1243  -4.6530  -4.4679  -4.3978
    -4.3632  -4.2756  -4.1378  -3.8828  -3.7670  -3.7062  -3.6545  -3.4763
    -3.1227  -2.5370  -2.4896  -2.2720  -2.1583  -1.7814  -1.6190  -1.5000
    -1.3571  -1.2716  -1.2541  -0.7098   0.3867   0.5232   0.5280   0.8941
     1.0562   1.3154   1.3879   1.5459   1.6135   1.8411   2.0186   2.3479

     the Fermi energy is     0.4838 ev

!    total energy              =    -975.65860408 Ry
     Harris-Foulkes estimate   =    -975.65860408 Ry
     estimated scf accuracy    <          2.6E-10 Ry

     The total energy is the sum of the following terms:

     one-electron contribution =   -4392.43145727 Ry
     hartree contribution      =    2201.13179415 Ry
     xc contribution           =    -318.50920265 Ry
     ewald contribution        =    1534.15790092 Ry
     smearing contrib. (-TS)   =      -0.00763923 Ry

     convergence has been achieved in  31 iterations

     negative rho (up, down):  9.121E-04 0.000E+00

     Forces acting on atoms (Ry/au):

     atom    1 type  3   force =     0.00000000    0.00000000   -0.00001461
     atom    2 type  1   force =    -0.00265038   -0.00153020    0.00000208
     atom    3 type  1   force =     0.00000000    0.00306040    0.00000208
     atom    4 type  1   force =     0.00265038   -0.00153020    0.00000208
     atom    5 type  2   force =    -0.02624162    0.01515061   -0.01920287
     atom    6 type  2   force =     0.00000000   -0.03030122   -0.01920287
     atom    7 type  2   force =     0.02624162    0.01515061   -0.01920287
     atom    8 type  2   force =     0.00000000    0.00000000    0.00721101
     atom    9 type  2   force =    -0.02624176    0.01515069    0.01920521
     atom   10 type  2   force =    -0.00000000   -0.03030138    0.01920521
     atom   11 type  2   force =     0.02624176    0.01515069    0.01920521
     atom   12 type  2   force =     0.00000000    0.00000000   -0.00720966

     Total force =     0.088622     Total SCF correction =     0.000059


     entering subroutine stress ...


     negative rho (up, down):  9.121E-04 0.000E+00
          total   stress  (Ry/bohr**3)                   (kbar)     P=   -8.42
  -0.00005356   0.00000000   0.00000000         -7.88      0.00      0.00
   0.00000000  -0.00005356   0.00000000          0.00     -7.88      0.00
   0.00000000   0.00000000  -0.00006457          0.00      0.00     -9.50


     BFGS Geometry Optimization

     number of scf cycles    =   1
     number of bfgs steps    =   0

     energy   new            =    -975.6586040822 Ry

     new trust radius        =       0.0358749737 bohr
     new conv_thr            =       0.0000000100 Ry


ATOMIC_POSITIONS (angstrom)
Mn       0.000000000   1.875085000   3.183900270
Mo      -1.625273523   4.686902253   3.183909099
Mo       3.247742000   1.876704494   3.183909099
Mo       1.625273523   4.686902253   3.183909099
Se       1.609984531   0.945559357   4.816642279
Se       0.000000000   3.734134286   4.816642279
Se       4.885499469   0.945559357   4.816642279
Se       3.247742000   3.750169000   4.830619902
Se       1.609984456   0.945559400   1.551174960
Se       0.000000000   3.734134201   1.551174960
Se       4.885499544   0.945559400   1.551174960
Se       3.247742000   3.750169000   1.537196813



     Writing output data file mose2_mn.save
     Check: negative starting charge=   -0.000724
     NEW-OLD atomic charge density approx. for the potential

     Check: negative/imaginary core charge=   -0.000003    0.000000
     Check: negative starting charge=   -0.000727

     negative rho (up, down):  9.358E-04 0.000E+00

     total cpu time spent up to now is     2409.7 secs

     per-process dynamical memory:   128.9 Mb

     Self-consistent Calculation

     iteration #  1     ecut=    70.00 Ry     beta=0.70
     CG style diagonalization
     c_bands:  1 eigenvalues not converged
     c_bands:  2 eigenvalues not converged
     c_bands:  2 eigenvalues not converged
     c_bands:  1 eigenvalues not converged
     c_bands:  1 eigenvalues not converged
     c_bands:  4 eigenvalues not converged
     c_bands:  3 eigenvalues not converged
     c_bands:  3 eigenvalues not converged
     c_bands:  5 eigenvalues not converged
     c_bands:  5 eigenvalues not converged
     ethr =  1.00E-06,  avg # of iterations =  8.5

     negative rho (up, down):  9.851E-04 0.000E+00

     total cpu time spent up to now is     2606.3 secs

     total energy              =    -975.66500170 Ry
     Harris-Foulkes estimate   =    -975.66592880 Ry
     estimated scf accuracy    <       0.00114495 Ry

     iteration #  2     ecut=    70.00 Ry     beta=0.70
     CG style diagonalization
     ethr =  1.09E-06,  avg # of iterations =  4.5

     negative rho (up, down):  9.536E-04 0.000E+00

     total cpu time spent up to now is     2698.9 secs

     total energy              =    -975.65645973 Ry
     Harris-Foulkes estimate   =    -975.67514714 Ry
     estimated scf accuracy    <       0.23669010 Ry

     iteration #  3     ecut=    70.00 Ry     beta=0.70
     CG style diagonalization
     ethr =  1.09E-06,  avg # of iterations =  4.3

     negative rho (up, down):  9.899E-04 0.000E+00

     total cpu time spent up to now is     2787.0 secs

     total energy              =    -975.66573958 Ry
     Harris-Foulkes estimate   =    -975.66605873 Ry
     estimated scf accuracy    <       0.00146609 Ry

     iteration #  4     ecut=    70.00 Ry     beta=0.70
     CG style diagonalization
     ethr =  1.09E-06,  avg # of iterations =  3.2

     negative rho (up, down):  1.001E-03 0.000E+00

     total cpu time spent up to now is     2852.0 secs

     total energy              =    -975.66590707 Ry
     Harris-Foulkes estimate   =    -975.66594763 Ry
     estimated scf accuracy    <       0.00015777 Ry

     iteration #  5     ecut=    70.00 Ry     beta=0.70
     CG style diagonalization
     ethr =  1.50E-07,  avg # of iterations =  3.5

     negative rho (up, down):  1.005E-03 0.000E+00

     total cpu time spent up to now is     2922.3 secs

     total energy              =    -975.66593688 Ry
     Harris-Foulkes estimate   =    -975.66594317 Ry
     estimated scf accuracy    <       0.00002203 Ry

     iteration #  6     ecut=    70.00 Ry     beta=0.70
     CG style diagonalization
     ethr =  2.10E-08,  avg # of iterations =  3.8

     negative rho (up, down):  1.004E-03 0.000E+00

     total cpu time spent up to now is     2998.7 secs

     total energy              =    -975.66594330 Ry
     Harris-Foulkes estimate   =    -975.66594392 Ry
     estimated scf accuracy    <       0.00000240 Ry

     iteration #  7     ecut=    70.00 Ry     beta=0.70
     CG style diagonalization
     ethr =  2.29E-09,  avg # of iterations =  4.4

     negative rho (up, down):  1.004E-03 0.000E+00

     total cpu time spent up to now is     3090.6 secs

     total energy              =    -975.66594466 Ry
     Harris-Foulkes estimate   =    -975.66594477 Ry
     estimated scf accuracy    <       0.00000030 Ry

     iteration #  8     ecut=    70.00 Ry     beta=0.70
     CG style diagonalization
     ethr =  2.89E-10,  avg # of iterations =  5.4

     negative rho (up, down):  1.004E-03 0.000E+00

     total cpu time spent up to now is     3203.1 secs

     total energy              =    -975.66594515 Ry
     Harris-Foulkes estimate   =    -975.66594517 Ry
     estimated scf accuracy    <       0.00000005 Ry

     iteration #  9     ecut=    70.00 Ry     beta=0.70
     CG style diagonalization
     ethr =  5.18E-11,  avg # of iterations =  5.2

     negative rho (up, down):  1.004E-03 0.000E+00

     total cpu time spent up to now is     3312.1 secs

     total energy              =    -975.66594521 Ry
     Harris-Foulkes estimate   =    -975.66594523 Ry
     estimated scf accuracy    <       0.00000015 Ry

     iteration # 10     ecut=    70.00 Ry     beta=0.70
     CG style diagonalization
     ethr =  5.18E-11,  avg # of iterations =  3.5

     negative rho (up, down):  1.004E-03 0.000E+00

     total cpu time spent up to now is     3383.6 secs

     End of self-consistent calculation

          k = 0.0000 0.0000 0.0000 ( 48761 PWs)   bands (ev):

   -78.6864 -61.2211 -61.1988 -61.1987 -47.8816 -47.8146 -47.8146 -35.5611
   -35.4666 -35.4665 -35.4610 -35.4098 -35.4098 -35.3254 -35.2761 -35.2760
   -15.0999 -14.0442 -13.1869 -13.1584 -13.1583 -13.0458 -12.8506 -12.8505
    -6.5732  -6.4699  -6.4698  -6.1294  -5.7246  -5.4697  -5.4697  -4.4124
    -4.4124  -4.4061  -3.4656  -3.2252  -3.2252  -2.6212  -2.6212  -2.5919
    -2.5364  -2.3980  -2.3980  -1.6853  -1.6853  -1.4933  -1.4933  -1.2884
    -1.1697  -1.1697  -1.1355  -0.9585   0.5175   0.5175   0.9863   1.4524
     1.7692   1.7692   1.7803   1.7803   2.6741   2.6742   2.7004   2.7005

          k = 0.0000 0.1155 0.0000 ( 48801 PWs)   bands (ev):

   -78.6864 -61.2206 -61.1992 -61.1987 -47.8816 -47.8146 -47.8146 -35.5558
   -35.4657 -35.4630 -35.4599 -35.4109 -35.4098 -35.3278 -35.2825 -35.2774
   -15.0636 -14.0231 -13.2374 -13.1773 -13.1634 -13.0580 -12.8746 -12.8498
    -6.5161  -6.4070  -6.3767  -6.0842  -5.6734  -5.4627  -5.4055  -4.4258
    -4.4034  -4.3854  -3.4759  -3.2873  -3.2023  -2.7172  -2.6456  -2.5947
    -2.5705  -2.3902  -2.3569  -1.7366  -1.7293  -1.7088  -1.6384  -1.3838
    -1.2485  -1.0667  -1.0441  -0.9639   0.5426   0.5471   0.9609   1.4622
     1.6245   1.7418   1.7740   1.7893   2.4827   2.5940   2.6132   2.7567

          k = 0.0000 0.2309 0.0000 ( 48770 PWs)   bands (ev):

   -78.6864 -61.2192 -61.2006 -61.1987 -47.8816 -47.8146 -47.8145 -35.5415
   -35.4624 -35.4567 -35.4526 -35.4141 -35.4098 -35.3355 -35.3010 -35.2804
   -14.9562 -13.9609 -13.4174 -13.1882 -13.1765 -13.1099 -12.9237 -12.8479
    -6.3592  -6.2291  -6.1168  -5.9511  -5.5525  -5.4427  -5.1973  -4.4572
    -4.3754  -4.3447  -3.5140  -3.4550  -3.1319  -2.9874  -2.8573  -2.5245
    -2.5182  -2.3580  -2.2981  -2.2093  -2.1754  -1.8755  -1.5667  -1.5125
    -1.3509  -1.0137  -1.0037  -0.9880   0.5810   0.6280   0.8983   1.2933
     1.4718   1.6543   1.7828   1.8214   2.0818   2.3432   2.4483   2.8987

          k = 0.0000 0.3464 0.0000 ( 48772 PWs)   bands (ev):

   -78.6864 -61.2171 -61.2027 -61.1987 -47.8816 -47.8146 -47.8145 -35.5229
   -35.4537 -35.4520 -35.4365 -35.4189 -35.4098 -35.3488 -35.3295 -35.2835
   -14.7829 -13.8611 -13.6784 -13.2241 -13.1991 -13.1925 -12.9558 -12.8456
    -6.1359  -5.9727  -5.7900  -5.7090  -5.4149  -5.4085  -4.8508  -4.5257
    -4.3213  -4.2861  -3.6740  -3.5803  -3.3810  -3.1362  -3.0141  -2.7855
    -2.7432  -2.4336  -2.3473  -2.3066  -2.2230  -2.0584  -1.5915  -1.5828
    -1.5049  -1.0640  -1.0112  -1.0072   0.5900   0.7390   0.8191   0.9680
     1.4767   1.5556   1.7044   1.7809   1.8659   2.1011   2.2250   2.6071

          k = 0.0000 0.4619 0.0000 ( 48764 PWs)   bands (ev):

   -78.6864 -61.2149 -61.2050 -61.1987 -47.8816 -47.8145 -47.8145 -35.5086
   -35.4468 -35.4343 -35.4242 -35.4173 -35.4098 -35.3663 -35.3640 -35.2855
   -14.5524 -13.9765 -13.7327 -13.3764 -13.2076 -13.2053 -12.9684 -12.8437
    -5.9128  -5.7192  -5.5533  -5.3894  -5.3733  -5.2772  -4.5841  -4.4260
    -4.2223  -4.2177  -3.8690  -3.8124  -3.6461  -3.4762  -3.3047  -3.2082
    -2.8629  -2.3523  -2.3495  -2.1795  -2.1528  -2.1097  -1.7260  -1.7002
    -1.5498  -1.2030  -1.0301  -1.0203   0.5739   0.7422   0.7683   0.8419
     1.4231   1.5068   1.5290   1.7558   1.8826   2.0020   2.0202   2.3340

          k = 0.0000-0.5774 0.0000 ( 48748 PWs)   bands (ev):

   -78.6864 -61.2136 -61.2062 -61.1987 -47.8816 -47.8145 -47.8145 -35.5039
   -35.4440 -35.4270 -35.4102 -35.4098 -35.4037 -35.3932 -35.3794 -35.2861
   -14.2938 -14.2602 -13.6288 -13.4907 -13.2109 -13.2101 -12.9718 -12.8430
    -5.8096  -5.6057  -5.4285  -5.3788  -5.2557  -5.2193  -4.5139  -4.2328
    -4.1254  -4.1038  -4.0321  -3.9523  -3.7597  -3.6736  -3.5760  -3.4212
    -2.7593  -2.4580  -2.3147  -2.1417  -2.0370  -1.9627  -1.9022  -1.8515
    -1.4229  -1.3629  -1.0392  -1.0262   0.5622   0.7055   0.7087   0.8849
     1.3545   1.4979   1.5460   1.7347   1.8322   1.9669   2.0730   2.1176

          k = 0.1000 0.1732 0.0000 ( 48791 PWs)   bands (ev):

   -78.6864 -61.2197 -61.2002 -61.1987 -47.8816 -47.8146 -47.8146 -35.5459
   -35.4641 -35.4578 -35.4555 -35.4131 -35.4098 -35.3331 -35.2941 -35.2802
   -14.9917 -13.9814 -13.3106 -13.2875 -13.1191 -13.0865 -12.9236 -12.8396
    -6.4143  -6.2683  -6.2125  -5.9952  -5.6075  -5.4134  -5.2843  -4.4391
    -4.3932  -4.3568  -3.5057  -3.3718  -3.1901  -2.8992  -2.7884  -2.5456
    -2.5325  -2.3823  -2.2994  -2.1781  -1.8509  -1.8500  -1.6260  -1.5636
    -1.2110  -1.1040  -0.9797  -0.9614   0.5534   0.6178   0.9176   1.3929
     1.4588   1.6723   1.7688   1.8289   2.2023   2.4240   2.4915   2.8555

          k = 0.1000 0.2887 0.0000 ( 48778 PWs)   bands (ev):

   -78.6864 -61.2179 -61.2019 -61.1987 -47.8816 -47.8146 -47.8145 -35.5287
   -35.4600 -35.4538 -35.4411 -35.4171 -35.4098 -35.3452 -35.3146 -35.2846
   -14.8514 -13.9003 -13.5247 -13.3568 -13.1596 -13.0808 -12.9908 -12.8206
    -6.2280  -6.0284  -5.9190  -5.8188  -5.5675  -5.2775  -5.0215  -4.4784
    -4.3717  -4.3107  -3.5926  -3.5011  -3.2306  -3.1644  -3.0090  -2.7555
    -2.4806  -2.4587  -2.3271  -2.2176  -2.2009  -2.0538  -1.7904  -1.5005
    -1.2916  -1.1150  -1.0270  -0.9216   0.5611   0.6915   0.8664   1.0735
     1.4065   1.5936   1.7352   1.8279   1.9201   2.2066   2.2826   2.7292

          k = 0.1000 0.4041 0.0000 ( 48753 PWs)   bands (ev):

   -78.6864 -61.2157 -61.2042 -61.1987 -47.8816 -47.8145 -47.8145 -35.5106
   -35.4493 -35.4486 -35.4223 -35.4216 -35.4098 -35.3661 -35.3399 -35.2881
   -14.6493 -13.8065 -13.7853 -13.4019 -13.2907 -13.0563 -13.0308 -12.8035
    -5.9879  -5.7653  -5.6374  -5.5482  -5.5146  -5.1197  -4.6311  -4.5551
    -4.3246  -4.2496  -3.7572  -3.6520  -3.6111  -3.3136  -3.3022  -3.0761
    -2.7300  -2.4854  -2.3188  -2.2649  -2.1608  -2.0593  -1.8476  -1.5442
    -1.4073  -1.1423  -1.1173  -0.9056   0.5489   0.6943   0.8192   0.8725
     1.3446   1.5007   1.5983   1.6783   1.9411   2.0562   2.0916   2.3982

          k = 0.1000 0.5196 0.0000 ( 48763 PWs)   bands (ev):

   -78.6864 -61.2136 -61.2062 -61.1987 -47.8816 -47.8145 -47.8145 -35.5003
   -35.4440 -35.4279 -35.4270 -35.4098 -35.4025 -35.3919 -35.3640 -35.2898
   -14.3967 -14.1065 -13.6530 -13.4400 -13.4261 -13.0469 -13.0446 -12.7937
    -5.7907  -5.5758  -5.5378  -5.4404  -5.2639  -5.0000  -4.5585  -4.2719
    -4.2086  -4.1698  -4.0379  -3.9026  -3.7404  -3.6740  -3.6373  -3.0523
    -2.9629  -2.6109  -2.3914  -2.1159  -2.0484  -1.9020  -1.8947  -1.6985
    -1.4297  -1.2903  -1.1376  -0.8995   0.5254   0.6640   0.6943   0.9047
     1.3011   1.4121   1.5685   1.6442   1.8074   2.0161   2.0798   2.1519

          k = 0.2000 0.3464 0.0000 ( 48776 PWs)   bands (ev):

   -78.6864 -61.2159 -61.2039 -61.1987 -47.8816 -47.8145 -47.8145 -35.5101
   -35.4567 -35.4493 -35.4222 -35.4216 -35.4098 -35.3662 -35.3283 -35.2919
   -14.6821 -13.8034 -13.6213 -13.5968 -13.2289 -13.0951 -13.0027 -12.7784
    -6.0183  -5.7263  -5.6881  -5.6200  -5.5988  -4.9860  -4.7595  -4.5074
    -4.3954  -4.2774  -3.6832  -3.5949  -3.5373  -3.3119  -3.2988  -3.1951
    -2.5708  -2.4257  -2.3445  -2.2424  -2.1374  -2.0945  -2.0195  -1.4349
    -1.2537  -1.2243  -1.1071  -0.8505   0.5156   0.6607   0.8382   0.8989
     1.2649   1.5032   1.6097   1.6421   1.9634   2.0972   2.1353   2.4834

          k = 0.2000 0.4619 0.0000 ( 48790 PWs)   bands (ev):

   -78.6864 -61.2136 -61.2062 -61.1987 -47.8816 -47.8145 -47.8145 -35.4923
   -35.4476 -35.4440 -35.4269 -35.4098 -35.4024 -35.3916 -35.3446 -35.2979
   -14.4573 -13.8980 -13.6787 -13.6631 -13.3464 -13.1599 -12.9539 -12.7476
    -5.7598  -5.6564  -5.5017  -5.4443  -5.3288  -4.7367  -4.5756  -4.3964
    -4.3798  -4.2764  -4.0104  -3.7769  -3.7402  -3.6380  -3.4811  -3.2919
    -2.8173  -2.6117  -2.4711  -2.2268  -2.0972  -1.9544  -1.8119  -1.4701
    -1.3327  -1.2408  -1.2114  -0.7941   0.4597   0.6114   0.6729   0.9209
     1.1728   1.3748   1.5118   1.5841   1.7645   1.9741   2.1522   2.2295

          k = 0.2000 0.5774 0.0000 ( 48766 PWs)   bands (ev):

   -78.6864 -61.2122 -61.2077 -61.1987 -47.8816 -47.8145 -47.8145 -35.4854
   -35.4407 -35.4302 -35.4299 -35.4216 -35.4098 -35.3814 -35.3586 -35.2999
   -14.2048 -14.1738 -13.6821 -13.5771 -13.4521 -13.1770 -12.9374 -12.7366
    -5.6692  -5.6095  -5.4113  -5.3475  -5.1857  -4.6248  -4.5943  -4.3709
    -4.3109  -4.2541  -4.0755  -3.8996  -3.8447  -3.7429  -3.6588  -3.2606
    -2.9703  -2.7378  -2.4983  -2.1792  -2.0635  -1.8674  -1.6507  -1.5819
    -1.3631  -1.3104  -1.2178  -0.7713   0.4310   0.5979   0.6159   0.9174
     1.1482   1.3281   1.4846   1.5762   1.6665   1.9114   2.0404   2.2738

          k = 0.3000 0.5196 0.0000 ( 48786 PWs)   bands (ev):

   -78.6864 -61.2114 -61.2085 -61.1987 -47.8816 -47.8145 -47.8145 -35.4727
   -35.4441 -35.4387 -35.4322 -35.4249 -35.4099 -35.3763 -35.3520 -35.3069
   -14.2183 -13.9570 -13.9319 -13.5587 -13.4068 -13.2651 -12.8998 -12.7152
    -5.7165  -5.4852  -5.3400  -5.2911  -5.1780  -4.6785  -4.4740  -4.4012
    -4.3611  -4.2822  -4.1491  -3.9007  -3.7627  -3.7166  -3.6251  -3.4728
    -3.1649  -2.5406  -2.4878  -2.2873  -2.1762  -1.7853  -1.5981  -1.4807
    -1.3409  -1.2797  -1.2682  -0.7126   0.3834   0.5743   0.5779   0.9119
     1.0646   1.3079   1.4134   1.5592   1.6252   1.8395   2.0128   2.3641

     the Fermi energy is     0.4963 ev

!    total energy              =    -975.66594522 Ry
     Harris-Foulkes estimate   =    -975.66594522 Ry
     estimated scf accuracy    <          5.4E-09 Ry

     The total energy is the sum of the following terms:

     one-electron contribution =   -4399.55166695 Ry
     hartree contribution      =    2204.70925104 Ry
     xc contribution           =    -318.54407231 Ry
     ewald contribution        =    1537.72763953 Ry
     smearing contrib. (-TS)   =      -0.00709652 Ry

     convergence has been achieved in  10 iterations

     negative rho (up, down):  1.004E-03 0.000E+00

     Forces acting on atoms (Ry/au):

     atom    1 type  3   force =     0.00000000    0.00000000    0.00001044
     atom    2 type  1   force =    -0.00516072   -0.00297954   -0.00000024
     atom    3 type  1   force =    -0.00000000    0.00595908   -0.00000024
     atom    4 type  1   force =     0.00516072   -0.00297954   -0.00000024
     atom    5 type  2   force =    -0.02252644    0.01300565   -0.01680901
     atom    6 type  2   force =     0.00000000   -0.02601130   -0.01680901
     atom    7 type  2   force =     0.02252644    0.01300565   -0.01680901
     atom    8 type  2   force =     0.00000000    0.00000000    0.00572805
     atom    9 type  2   force =    -0.02252482    0.01300471    0.01680629
     atom   10 type  2   force =     0.00000000   -0.02600942    0.01680629
     atom   11 type  2   force =     0.02252482    0.01300471    0.01680629
     atom   12 type  2   force =     0.00000000    0.00000000   -0.00572962

     Total force =     0.076983     Total SCF correction =     0.000231


     entering subroutine stress ...


     negative rho (up, down):  1.004E-03 0.000E+00
          total   stress  (Ry/bohr**3)                   (kbar)     P=   -7.45
  -0.00004738  -0.00000000   0.00000000         -6.97     -0.00      0.00
  -0.00000000  -0.00004738   0.00000000         -0.00     -6.97      0.00
   0.00000000  -0.00000000  -0.00005715          0.00     -0.00     -8.41


     number of scf cycles    =   2
     number of bfgs steps    =   1

     energy   old            =    -975.6586040822 Ry
     energy   new            =    -975.6659452189 Ry

     CASE: energy  _new < energy  _old


     WARNING: bfgs curvature condition failed, Theta= 0.924
     new trust radius        =       0.0394624711 bohr
     new conv_thr            =       0.0000000026 Ry


ATOMIC_POSITIONS (angstrom)
Mn      -0.000000000   1.875085000   3.183905389
Mo      -1.628514346   4.685031163   3.183909105
Mo       3.247742000   1.880446674   3.183909105
Mo       1.628514346   4.685031163   3.183909105
Se       1.594784459   0.954335122   4.805327314
Se       0.000000000   3.716582755   4.805327314
Se       4.900699541   0.954335122   4.805327314
Se       3.247742000   3.750169000   4.834523659
Se       1.594785337   0.954334615   1.562488489
Se       0.000000000   3.716583769   1.562488489
Se       4.900698663   0.954334615   1.562488489
Se       3.247742000   3.750169000   1.533292230



     Writing output data file mose2_mn.save
     Check: negative starting charge=   -0.000727
     NEW-OLD atomic charge density approx. for the potential

     Check: negative/imaginary core charge=   -0.000003    0.000000
     Check: negative starting charge=   -0.000731

     negative rho (up, down):  1.040E-03 0.000E+00

     total cpu time spent up to now is     3432.4 secs

     per-process dynamical memory:   128.9 Mb

     Self-consistent Calculation

     iteration #  1     ecut=    70.00 Ry     beta=0.70
     CG style diagonalization
     c_bands:  1 eigenvalues not converged
     c_bands:  4 eigenvalues not converged
     c_bands:  3 eigenvalues not converged
     c_bands:  1 eigenvalues not converged
     c_bands:  2 eigenvalues not converged
     c_bands:  5 eigenvalues not converged
     c_bands:  3 eigenvalues not converged
     c_bands:  4 eigenvalues not converged
     c_bands:  3 eigenvalues not converged
     c_bands:  5 eigenvalues not converged
     c_bands:  4 eigenvalues not converged
     ethr =  1.00E-06,  avg # of iterations =  9.8

     negative rho (up, down):  1.065E-03 0.000E+00

     total cpu time spent up to now is     3656.9 secs

     total energy              =    -975.67126930 Ry
     Harris-Foulkes estimate   =    -975.67282219 Ry
     estimated scf accuracy    <       0.00185856 Ry

     iteration #  2     ecut=    70.00 Ry     beta=0.70
     CG style diagonalization
     c_bands:  1 eigenvalues not converged
     ethr =  1.77E-06,  avg # of iterations =  4.6

     negative rho (up, down):  9.736E-04 0.000E+00

     total cpu time spent up to now is     3751.8 secs

     total energy              =    -975.65686160 Ry
     Harris-Foulkes estimate   =    -975.68858067 Ry
     estimated scf accuracy    <       0.39495373 Ry

     iteration #  3     ecut=    70.00 Ry     beta=0.70
     CG style diagonalization
     ethr =  1.77E-06,  avg # of iterations =  4.5

     negative rho (up, down):  1.047E-03 0.000E+00

     total cpu time spent up to now is     3844.7 secs

     total energy              =    -975.67256635 Ry
     Harris-Foulkes estimate   =    -975.67286055 Ry
     estimated scf accuracy    <       0.00106181 Ry

     iteration #  4     ecut=    70.00 Ry     beta=0.70
     CG style diagonalization
     ethr =  1.01E-06,  avg # of iterations =  3.4

     negative rho (up, down):  1.064E-03 0.000E+00

     total cpu time spent up to now is     3912.7 secs

     total energy              =    -975.67273388 Ry
     Harris-Foulkes estimate   =    -975.67278904 Ry
     estimated scf accuracy    <       0.00020972 Ry

     iteration #  5     ecut=    70.00 Ry     beta=0.70
     CG style diagonalization
     ethr =  2.00E-07,  avg # of iterations =  3.4

     negative rho (up, down):  1.072E-03 0.000E+00

     total cpu time spent up to now is     3982.0 secs

     total energy              =    -975.67277109 Ry
     Harris-Foulkes estimate   =    -975.67277745 Ry
     estimated scf accuracy    <       0.00002629 Ry

     iteration #  6     ecut=    70.00 Ry     beta=0.70
     CG style diagonalization
     ethr =  2.50E-08,  avg # of iterations =  3.6

     negative rho (up, down):  1.073E-03 0.000E+00

     total cpu time spent up to now is     4055.6 secs

     total energy              =    -975.67277740 Ry
     Harris-Foulkes estimate   =    -975.67277786 Ry
     estimated scf accuracy    <       0.00000122 Ry

     iteration #  7     ecut=    70.00 Ry     beta=0.70
     CG style diagonalization
     ethr =  1.16E-09,  avg # of iterations =  5.4

     negative rho (up, down):  1.073E-03 0.000E+00

     total cpu time spent up to now is     4168.7 secs

     total energy              =    -975.67277927 Ry
     Harris-Foulkes estimate   =    -975.67277933 Ry
     estimated scf accuracy    <       0.00000012 Ry

     iteration #  8     ecut=    70.00 Ry     beta=0.70
     CG style diagonalization
     ethr =  1.14E-10,  avg # of iterations =  5.8

     negative rho (up, down):  1.073E-03 0.000E+00

     total cpu time spent up to now is     4290.6 secs

     total energy              =    -975.67277953 Ry
     Harris-Foulkes estimate   =    -975.67277956 Ry
     estimated scf accuracy    <       0.00000008 Ry

     iteration #  9     ecut=    70.00 Ry     beta=0.70
     CG style diagonalization
     ethr =  7.74E-11,  avg # of iterations =  3.9

     negative rho (up, down):  1.073E-03 0.000E+00

     total cpu time spent up to now is     4370.4 secs

     total energy              =    -975.67277956 Ry
     Harris-Foulkes estimate   =    -975.67277957 Ry
     estimated scf accuracy    <       0.00000007 Ry

     iteration # 10     ecut=    70.00 Ry     beta=0.70
     CG style diagonalization
     ethr =  6.43E-11,  avg # of iterations =  3.4

     negative rho (up, down):  1.073E-03 0.000E+00

     total cpu time spent up to now is     4437.5 secs

     End of self-consistent calculation

          k = 0.0000 0.0000 0.0000 ( 48761 PWs)   bands (ev):

   -78.6873 -61.2086 -61.1863 -61.1862 -47.8807 -47.8223 -47.8223 -35.5503
   -35.4585 -35.4585 -35.4434 -35.3922 -35.3922 -35.3176 -35.2658 -35.2657
   -15.1221 -14.0494 -13.1988 -13.1822 -13.1821 -13.0432 -12.8550 -12.8549
    -6.5703  -6.4848  -6.4848  -6.1456  -5.7407  -5.4663  -5.4663  -4.4435
    -4.4166  -4.4165  -3.4687  -3.2389  -3.2388  -2.6514  -2.6514  -2.5814
    -2.5129  -2.3793  -2.3793  -1.7132  -1.7132  -1.5334  -1.5333  -1.2905
    -1.1533  -1.1533  -1.1513  -0.9403   0.5173   0.5174   1.0022   1.4626
     1.7851   1.7852   1.8196   1.8197   2.6886   2.6886   2.7299   2.7299

          k = 0.0000 0.1155 0.0000 ( 48801 PWs)   bands (ev):

   -78.6873 -61.2081 -61.1868 -61.1862 -47.8807 -47.8223 -47.8223 -35.5451
   -35.4576 -35.4549 -35.4423 -35.3933 -35.3922 -35.3201 -35.2722 -35.2670
   -15.0858 -14.0287 -13.2576 -13.1925 -13.1872 -13.0573 -12.8764 -12.8541
    -6.5169  -6.4214  -6.3891  -6.1010  -5.6866  -5.4617  -5.4054  -4.4429
    -4.4091  -4.4083  -3.4768  -3.2983  -3.2153  -2.7471  -2.6356  -2.6239
    -2.5561  -2.3695  -2.3407  -1.7654  -1.7590  -1.7331  -1.6579  -1.3814
    -1.2611  -1.0628  -1.0492  -0.9460   0.5418   0.5479   0.9793   1.4737
     1.6744   1.7462   1.7943   1.8247   2.4972   2.6194   2.6272   2.7852

          k = 0.0000 0.2309 0.0000 ( 48770 PWs)   bands (ev):

   -78.6873 -61.2068 -61.1882 -61.1862 -47.8807 -47.8223 -47.8223 -35.5309
   -35.4542 -35.4444 -35.4391 -35.3965 -35.3922 -35.3277 -35.2907 -35.2701
   -14.9784 -13.9679 -13.4388 -13.2018 -13.2006 -13.1140 -12.9186 -12.8520
    -6.3646  -6.2418  -6.1270  -5.9710  -5.5576  -5.4485  -5.2065  -4.4678
    -4.3820  -4.3728  -3.5079  -3.4604  -3.1436  -3.0159  -2.8600  -2.5485
    -2.5119  -2.3323  -2.2835  -2.2286  -2.1944  -1.9072  -1.5723  -1.5128
    -1.3709  -1.0152  -1.0118  -0.9713   0.5787   0.6315   0.9226   1.3443
     1.4859   1.6586   1.8272   1.8340   2.0959   2.3615   2.4607   2.9267

          k = 0.0000 0.3464 0.0000 ( 48772 PWs)   bands (ev):

   -78.6873 -61.2047 -61.1902 -61.1862 -47.8807 -47.8223 -47.8223 -35.5125
   -35.4453 -35.4344 -35.4283 -35.4013 -35.3922 -35.3410 -35.3191 -35.2732
   -14.8050 -13.8709 -13.6994 -13.2292 -13.2168 -13.2123 -12.9461 -12.8493
    -6.1445  -5.9826  -5.7912  -5.7440  -5.4296  -5.4058  -4.8697  -4.5375
    -4.3301  -4.3093  -3.6756  -3.5640  -3.4061  -3.1511  -3.0233  -2.7950
    -2.7558  -2.4361  -2.3779  -2.2785  -2.2064  -2.0909  -1.5917  -1.5761
    -1.5276  -1.0514  -1.0224  -1.0080   0.5862   0.7465   0.8476   1.0231
     1.4929   1.5638   1.7160   1.8317   1.8725   2.1135   2.2351   2.6039

          k = 0.0000 0.4619 0.0000 ( 48764 PWs)   bands (ev):

   -78.6873 -61.2024 -61.1925 -61.1862 -47.8807 -47.8223 -47.8222 -35.4988
   -35.4292 -35.4255 -35.4089 -35.4065 -35.3922 -35.3587 -35.3535 -35.2753
   -14.5747 -13.9970 -13.7484 -13.3762 -13.2297 -13.2207 -12.9575 -12.8471
    -5.9241  -5.7259  -5.5610  -5.4119  -5.4105  -5.2693  -4.6039  -4.4534
    -4.2325  -4.2281  -3.8694  -3.8311  -3.6210  -3.4968  -3.3189  -3.2186
    -2.8641  -2.3745  -2.3601  -2.2046  -2.1394  -2.0916  -1.7259  -1.7084
    -1.5464  -1.1934  -1.0370  -1.0285   0.5707   0.7693   0.8285   0.8538
     1.4464   1.5262   1.5293   1.8031   1.8858   2.0106   2.0298   2.3400

          k = 0.0000-0.5774 0.0000 ( 48748 PWs)   bands (ev):

   -78.6873 -61.2012 -61.1938 -61.1862 -47.8807 -47.8223 -47.8222 -35.4943
   -35.4264 -35.4093 -35.4022 -35.3949 -35.3922 -35.3816 -35.3721 -35.2759
   -14.3265 -14.2701 -13.6587 -13.4764 -13.2346 -13.2238 -12.9606 -12.8463
    -5.8226  -5.6106  -5.4308  -5.4046  -5.3008  -5.2093  -4.5550  -4.2190
    -4.1435  -4.1346  -4.0471  -3.9496  -3.7763  -3.6450  -3.5939  -3.4336
    -2.7421  -2.5098  -2.3281  -2.1153  -2.0550  -1.9602  -1.8836  -1.8647
    -1.4049  -1.3680  -1.0432  -1.0378   0.5602   0.7334   0.7681   0.8989
     1.3798   1.4985   1.5705   1.7784   1.8268   1.9793   2.0796   2.1246

          k = 0.1000 0.1732 0.0000 ( 48791 PWs)   bands (ev):

   -78.6873 -61.2072 -61.1877 -61.1863 -47.8807 -47.8223 -47.8223 -35.5353
   -35.4560 -35.4474 -35.4401 -35.3955 -35.3922 -35.3253 -35.2838 -35.2698
   -15.0139 -13.9879 -13.3376 -13.3000 -13.1386 -13.0896 -12.9209 -12.8431
    -6.4188  -6.2823  -6.2224  -6.0136  -5.6145  -5.4178  -5.2905  -4.4507
    -4.4017  -4.3823  -3.5020  -3.3791  -3.2010  -2.9282  -2.7874  -2.5722
    -2.5252  -2.3569  -2.2853  -2.1963  -1.8818  -1.8808  -1.6194  -1.5731
    -1.2341  -1.0993  -0.9695  -0.9600   0.5524   0.6205   0.9395   1.4435
     1.4711   1.6783   1.8183   1.8337   2.2162   2.4465   2.5047   2.8825

          k = 0.1000 0.2887 0.0000 ( 48778 PWs)   bands (ev):

   -78.6873 -61.2055 -61.1894 -61.1862 -47.8807 -47.8223 -47.8223 -35.5182
   -35.4518 -35.4361 -35.4329 -35.3995 -35.3922 -35.3373 -35.3045 -35.2742
   -14.8735 -13.9088 -13.5472 -13.3738 -13.1673 -13.1000 -12.9814 -12.8231
    -6.2346  -6.0415  -5.9245  -5.8456  -5.5732  -5.2820  -5.0381  -4.4891
    -4.3813  -4.3352  -3.5867  -3.4979  -3.2568  -3.1718  -3.0204  -2.7663
    -2.4839  -2.4766  -2.3021  -2.2395  -2.1875  -2.0856  -1.7958  -1.4991
    -1.3092  -1.1180  -1.0120  -0.9279   0.5581   0.7034   0.8887   1.1270
     1.4165   1.6039   1.7801   1.8395   1.9273   2.2291   2.2944   2.7268

          k = 0.1000 0.4041 0.0000 ( 48753 PWs)   bands (ev):

   -78.6873 -61.2032 -61.1917 -61.1862 -47.8807 -47.8223 -47.8222 -35.5005
   -35.4408 -35.4310 -35.4132 -35.4047 -35.3922 -35.3576 -35.3304 -35.2778
   -14.6714 -13.8277 -13.7978 -13.4199 -13.2961 -13.0754 -13.0193 -12.8054
    -5.9961  -5.7751  -5.6436  -5.5589  -5.5499  -5.1220  -4.6552  -4.5702
    -4.3348  -4.2675  -3.7572  -3.6719  -3.5904  -3.3276  -3.3217  -3.0784
    -2.7409  -2.4798  -2.3526  -2.2908  -2.1446  -2.0433  -1.8608  -1.5336
    -1.4176  -1.1404  -1.1150  -0.9125   0.5432   0.7230   0.8777   0.8878
     1.3553   1.5130   1.6096   1.7158   1.9460   2.0769   2.1037   2.3978

          k = 0.1000 0.5196 0.0000 ( 48763 PWs)   bands (ev):

   -78.6873 -61.2012 -61.1937 -61.1862 -47.8807 -47.8223 -47.8222 -35.4906
   -35.4264 -35.4193 -35.4093 -35.3928 -35.3922 -35.3837 -35.3551 -35.2796
   -14.4199 -14.1262 -13.6760 -13.4443 -13.4348 -13.0636 -13.0354 -12.7953
    -5.8011  -5.5824  -5.5526  -5.4460  -5.3065  -5.0008  -4.5895  -4.2741
    -4.2400  -4.1794  -4.0446  -3.9045  -3.7634  -3.6723  -3.6301  -3.0621
    -2.9504  -2.6463  -2.4004  -2.1360  -2.0342  -1.9184  -1.8869  -1.6782
    -1.4271  -1.2855  -1.1466  -0.9066   0.5192   0.6970   0.7570   0.9191
     1.3216   1.4160   1.5842   1.6800   1.8067   2.0233   2.0929   2.1531

          k = 0.2000 0.3464 0.0000 ( 48776 PWs)   bands (ev):

   -78.6873 -61.2035 -61.1914 -61.1863 -47.8807 -47.8223 -47.8222 -35.4999
   -35.4484 -35.4316 -35.4137 -35.4040 -35.3922 -35.3577 -35.3189 -35.2815
   -14.7042 -13.8150 -13.6564 -13.6007 -13.2425 -13.0766 -13.0219 -12.7801
    -6.0245  -5.7404  -5.6856  -5.6389  -5.6297  -4.9838  -4.7870  -4.5223
    -4.4040  -4.2987  -3.6753  -3.6141  -3.5281  -3.3271  -3.3000  -3.2127
    -2.5618  -2.4445  -2.3811  -2.2576  -2.1207  -2.1097  -2.0041  -1.4261
    -1.2754  -1.2207  -1.0956  -0.8574   0.5105   0.6905   0.8960   0.9151
     1.2720   1.5133   1.6428   1.6529   1.9706   2.1232   2.1478   2.4101

          k = 0.2000 0.4619 0.0000 ( 48790 PWs)   bands (ev):

   -78.6873 -61.2012 -61.1937 -61.1863 -47.8807 -47.8223 -47.8222 -35.4825
   -35.4389 -35.4264 -35.4093 -35.3924 -35.3922 -35.3841 -35.3358 -35.2874
   -14.4799 -13.9202 -13.6967 -13.6792 -13.3556 -13.1391 -12.9732 -12.7490
    -5.7653  -5.6696  -5.5056  -5.4565  -5.3708  -4.7367  -4.6000  -4.4085
    -4.4033  -4.2921  -4.0168  -3.7783  -3.7631  -3.6160  -3.4955  -3.2869
    -2.8434  -2.6196  -2.4786  -2.2406  -2.1210  -1.9474  -1.7932  -1.4539
    -1.3365  -1.2402  -1.2164  -0.8008   0.4521   0.6511   0.7354   0.9379
     1.1843   1.3755   1.5414   1.5964   1.7719   1.9832   2.1487   2.2425

          k = 0.2000 0.5774 0.0000 ( 48766 PWs)   bands (ev):

   -78.6873 -61.1998 -61.1952 -61.1862 -47.8807 -47.8223 -47.8222 -35.4759
   -35.4231 -35.4217 -35.4125 -35.4111 -35.3922 -35.3735 -35.3498 -35.2894
   -14.2395 -14.1828 -13.6993 -13.6098 -13.4452 -13.1573 -12.9567 -12.7379
    -5.6838  -5.6156  -5.4181  -5.3515  -5.2344  -4.6303  -4.6276  -4.3840
    -4.3140  -4.2523  -4.1011  -3.9250  -3.8595  -3.7522  -3.6295  -3.2373
    -3.0195  -2.7437  -2.4993  -2.1941  -2.0864  -1.8639  -1.6395  -1.5536
    -1.3522  -1.3183  -1.2295  -0.7778   0.4227   0.6412   0.6805   0.9327
     1.1663   1.3224   1.5152   1.5900   1.6722   1.9090   2.0365   2.2873

          k = 0.3000 0.5196 0.0000 ( 48786 PWs)   bands (ev):

   -78.6873 -61.1989 -61.1960 -61.1863 -47.8807 -47.8223 -47.8222 -35.4634
   -35.4348 -35.4212 -35.4154 -35.4145 -35.3923 -35.3683 -35.3434 -35.2963
   -14.2433 -13.9929 -13.9318 -13.5897 -13.4169 -13.2301 -12.9192 -12.7166
    -5.7313  -5.4859  -5.3375  -5.2994  -5.2359  -4.7094  -4.4854  -4.4206
    -4.3665  -4.2766  -4.1683  -3.9235  -3.7736  -3.7215  -3.5925  -3.4660
    -3.2127  -2.5402  -2.4853  -2.3052  -2.1996  -1.7879  -1.5769  -1.4573
    -1.3262  -1.2927  -1.2823  -0.7189   0.3750   0.6231   0.6432   0.9268
     1.0784   1.2986   1.4429   1.5681   1.6396   1.8344   2.0056   2.3776

     the Fermi energy is     0.5025 ev

!    total energy              =    -975.67277957 Ry
     Harris-Foulkes estimate   =    -975.67277957 Ry
     estimated scf accuracy    <          7.9E-10 Ry

     The total energy is the sum of the following terms:

     one-electron contribution =   -4407.62638892 Ry
     hartree contribution      =    2208.76010221 Ry
     xc contribution           =    -318.58519195 Ry
     ewald contribution        =    1541.78508394 Ry
     smearing contrib. (-TS)   =      -0.00638486 Ry

     convergence has been achieved in  10 iterations

     negative rho (up, down):  1.073E-03 0.000E+00

     Forces acting on atoms (Ry/au):

     atom    1 type  3   force =     0.00000000    0.00000000    0.00001181
     atom    2 type  1   force =    -0.00621796   -0.00358994    0.00000040
     atom    3 type  1   force =    -0.00000000    0.00717988    0.00000040
     atom    4 type  1   force =     0.00621796   -0.00358994    0.00000040
     atom    5 type  2   force =    -0.01775066    0.01024835   -0.01380135
     atom    6 type  2   force =     0.00000000   -0.02049670   -0.01380135
     atom    7 type  2   force =     0.01775066    0.01024835   -0.01380135
     atom    8 type  2   force =     0.00000000    0.00000000    0.00515582
     atom    9 type  2   force =    -0.01774959    0.01024773    0.01379757
     atom   10 type  2   force =     0.00000000   -0.02049547    0.01379757
     atom   11 type  2   force =     0.01774959    0.01024773    0.01379757
     atom   12 type  2   force =     0.00000000    0.00000000   -0.00515749

     Total force =     0.062217     Total SCF correction =     0.000115


     entering subroutine stress ...


     negative rho (up, down):  1.073E-03 0.000E+00
          total   stress  (Ry/bohr**3)                   (kbar)     P=   -6.21
  -0.00004030   0.00000000   0.00000000         -5.93      0.00      0.00
   0.00000000  -0.00004030   0.00000000          0.00     -5.93      0.00
   0.00000000  -0.00000000  -0.00004601          0.00     -0.00     -6.77


     number of scf cycles    =   3
     number of bfgs steps    =   2

     energy   old            =    -975.6659452189 Ry
     energy   new            =    -975.6727795691 Ry

     CASE: energy  _new < energy  _old

     new trust radius        =       0.0591937066 bohr
     new conv_thr            =       0.0000000020 Ry


ATOMIC_POSITIONS (angstrom)
Mn      -0.000000000   1.875085000   3.183915973
Mo      -1.635367039   4.681074759   3.183909733
Mo       3.247742000   1.888359483   3.183909733
Mo       1.635367039   4.681074759   3.183909733
Se       1.572198123   0.967375349   4.787977950
Se       0.000000000   3.690502301   4.787977950
Se       4.923285877   0.967375349   4.787977950
Se       3.247742000   3.750169000   4.840962638
Se       1.572200165   0.967374170   1.579834227
Se       0.000000000   3.690504659   1.579834227
Se       4.923283835   0.967374170   1.579834227
Se       3.247742000   3.750169000   1.526851658



     Writing output data file mose2_mn.save
     Check: negative starting charge=   -0.000731
     NEW-OLD atomic charge density approx. for the potential

     Check: negative/imaginary core charge=   -0.000003    0.000000
     Check: negative starting charge=   -0.000730

     negative rho (up, down):  1.150E-03 0.000E+00

     total cpu time spent up to now is     4486.0 secs

     per-process dynamical memory:   128.9 Mb

     Self-consistent Calculation

     iteration #  1     ecut=    70.00 Ry     beta=0.70
     CG style diagonalization
     c_bands:  1 eigenvalues not converged
     c_bands:  1 eigenvalues not converged
     c_bands:  5 eigenvalues not converged
     ethr =  1.00E-06,  avg # of iterations = 13.9

     negative rho (up, down):  1.125E-03 0.000E+00

     total cpu time spent up to now is     4787.6 secs

     total energy              =    -975.67508174 Ry
     Harris-Foulkes estimate   =    -975.68036959 Ry
     estimated scf accuracy    <       0.00621506 Ry

     iteration #  2     ecut=    70.00 Ry     beta=0.70
     CG style diagonalization
     c_bands:  1 eigenvalues not converged
     c_bands:  1 eigenvalues not converged
     c_bands:  1 eigenvalues not converged
     c_bands:  1 eigenvalues not converged
     c_bands:  1 eigenvalues not converged
     ethr =  5.92E-06,  avg # of iterations =  4.6

     negative rho (up, down):  8.658E-04 0.000E+00

     total cpu time spent up to now is     4884.1 secs

     total energy              =    -975.62397423 Ry
     Harris-Foulkes estimate   =    -975.73447255 Ry
     estimated scf accuracy    <       1.37126013 Ry

     iteration #  3     ecut=    70.00 Ry     beta=0.70
     CG style diagonalization
     ethr =  5.92E-06,  avg # of iterations =  4.6

     negative rho (up, down):  1.028E-03 0.000E+00

     total cpu time spent up to now is     4980.4 secs

     total energy              =    -975.67954062 Ry
     Harris-Foulkes estimate   =    -975.67996556 Ry
     estimated scf accuracy    <       0.00108611 Ry

     iteration #  4     ecut=    70.00 Ry     beta=0.70
     CG style diagonalization
     ethr =  1.03E-06,  avg # of iterations =  3.8

     negative rho (up, down):  1.074E-03 0.000E+00

     total cpu time spent up to now is     5057.5 secs

     total energy              =    -975.67991180 Ry
     Harris-Foulkes estimate   =    -975.68007764 Ry
     estimated scf accuracy    <       0.00070115 Ry

     iteration #  5     ecut=    70.00 Ry     beta=0.70
     CG style diagonalization
     c_bands:  1 eigenvalues not converged
     ethr =  6.68E-07,  avg # of iterations =  3.3

     negative rho (up, down):  1.097E-03 0.000E+00

     total cpu time spent up to now is     5123.7 secs

     total energy              =    -975.68000273 Ry
     Harris-Foulkes estimate   =    -975.68001600 Ry
     estimated scf accuracy    <       0.00008873 Ry

     iteration #  6     ecut=    70.00 Ry     beta=0.70
     CG style diagonalization
     ethr =  8.45E-08,  avg # of iterations =  3.4

     negative rho (up, down):  1.102E-03 0.000E+00

     total cpu time spent up to now is     5193.4 secs

     total energy              =    -975.68001595 Ry
     Harris-Foulkes estimate   =    -975.68001782 Ry
     estimated scf accuracy    <       0.00001572 Ry

     iteration #  7     ecut=    70.00 Ry     beta=0.70
     CG style diagonalization
     ethr =  1.50E-08,  avg # of iterations =  3.7

     negative rho (up, down):  1.102E-03 0.000E+00

     total cpu time spent up to now is     5268.8 secs

     total energy              =    -975.68001926 Ry
     Harris-Foulkes estimate   =    -975.68001971 Ry
     estimated scf accuracy    <       0.00000255 Ry

     iteration #  8     ecut=    70.00 Ry     beta=0.70
     CG style diagonalization
     ethr =  2.43E-09,  avg # of iterations =  4.3

     negative rho (up, down):  1.102E-03 0.000E+00

     total cpu time spent up to now is     5357.3 secs

     total energy              =    -975.68002036 Ry
     Harris-Foulkes estimate   =    -975.68002082 Ry
     estimated scf accuracy    <       0.00000213 Ry

     iteration #  9     ecut=    70.00 Ry     beta=0.70
     CG style diagonalization
     ethr =  2.03E-09,  avg # of iterations =  3.5

     negative rho (up, down):  1.102E-03 0.000E+00

     total cpu time spent up to now is     5428.3 secs

     total energy              =    -975.68002084 Ry
     Harris-Foulkes estimate   =    -975.68002084 Ry
     estimated scf accuracy    <       0.00000001 Ry

     iteration # 10     ecut=    70.00 Ry     beta=0.70
     CG style diagonalization
     ethr =  1.35E-11,  avg # of iterations =  9.4

     negative rho (up, down):  1.102E-03 0.000E+00

     total cpu time spent up to now is     5629.9 secs

     total energy              =    -975.68002111 Ry
     Harris-Foulkes estimate   =    -975.68002112 Ry
     estimated scf accuracy    <       0.00000002 Ry

     iteration # 11     ecut=    70.00 Ry     beta=0.70
     CG style diagonalization
     ethr =  1.35E-11,  avg # of iterations =  3.5

     negative rho (up, down):  1.102E-03 0.000E+00

     total cpu time spent up to now is     5701.8 secs

     End of self-consistent calculation

          k = 0.0000 0.0000 0.0000 ( 48761 PWs)   bands (ev):

   -78.6893 -61.1996 -61.1771 -61.1771 -47.8754 -47.8383 -47.8383 -35.5434
   -35.4559 -35.4559 -35.4267 -35.3756 -35.3755 -35.3156 -35.2589 -35.2588
   -15.1686 -14.0673 -13.2278 -13.2224 -13.2223 -13.0526 -12.8622 -12.8622
    -6.5707  -6.5163  -6.5163  -6.1798  -5.7666  -5.4686  -5.4685  -4.5066
    -4.4274  -4.4274  -3.4729  -3.2746  -3.2746  -2.7036  -2.7036  -2.6118
    -2.4504  -2.3490  -2.3490  -1.7529  -1.7529  -1.6050  -1.6050  -1.2994
    -1.1807  -1.1290  -1.1290  -0.9198   0.5107   0.5107   1.0139   1.4752
     1.7810   1.7810   1.9016   1.9017   2.7083   2.7083   2.7617   2.7617

          k = 0.0000 0.1155 0.0000 ( 48801 PWs)   bands (ev):

   -78.6893 -61.1991 -61.1776 -61.1771 -47.8754 -47.8383 -47.8383 -35.5382
   -35.4550 -35.4523 -35.4256 -35.3767 -35.3755 -35.3181 -35.2653 -35.2601
   -15.1323 -14.0474 -13.2994 -13.2276 -13.2193 -13.0701 -12.8790 -12.8612
    -6.5247  -6.4522  -6.4161  -6.1354  -5.7100  -5.4678  -5.4111  -4.4967
    -4.4285  -4.4200  -3.4778  -3.3304  -3.2500  -2.7984  -2.6749  -2.6617
    -2.5125  -2.3362  -2.3138  -1.8147  -1.8063  -1.7819  -1.6844  -1.3842
    -1.2825  -1.0599  -1.0568  -0.9257   0.5341   0.5429   0.9958   1.4889
     1.7411   1.7552   1.7904   1.9071   2.5167   2.6462   2.6467   2.8150

          k = 0.0000 0.2309 0.0000 ( 48770 PWs)   bands (ev):

   -78.6893 -61.1977 -61.1790 -61.1771 -47.8754 -47.8383 -47.8383 -35.5241
   -35.4515 -35.4418 -35.4225 -35.3799 -35.3755 -35.3258 -35.2838 -35.2632
   -15.0252 -13.9890 -13.4808 -13.2412 -13.2268 -13.1331 -12.9112 -12.8586
    -6.3791  -6.2705  -6.1552  -6.0065  -5.5722  -5.4648  -5.2242  -4.4967
    -4.4151  -4.3960  -3.4994  -3.4848  -3.1764  -3.0641  -2.8781  -2.5936
    -2.5035  -2.2910  -2.2663  -2.2604  -2.2286  -1.9514  -1.5780  -1.5195
    -1.4042  -1.0407  -1.0106  -0.9524   0.5676   0.6308   0.9501   1.4259
     1.5056   1.6530   1.8246   1.9174   2.1141   2.3808   2.4777   2.9422

          k = 0.0000 0.3464 0.0000 ( 48772 PWs)   bands (ev):

   -78.6893 -61.1957 -61.1811 -61.1771 -47.8754 -47.8383 -47.8382 -35.5063
   -35.4421 -35.4256 -35.4178 -35.3846 -35.3755 -35.3391 -35.3120 -35.2665
   -14.8527 -13.8969 -13.7398 -13.2577 -13.2475 -13.2369 -12.9331 -12.8554
    -6.1642  -6.0080  -5.8223  -5.7865  -5.4591  -5.4100  -4.9030  -4.5629
    -4.3522  -4.3469  -3.6936  -3.5421  -3.4480  -3.1790  -3.0531  -2.8167
    -2.7804  -2.4430  -2.4284  -2.2411  -2.1840  -2.1264  -1.5989  -1.5658
    -1.5636  -1.0562  -1.0397  -1.0028   0.5712   0.7518   0.8842   1.1108
     1.5163   1.5635   1.7302   1.8721   1.9144   2.1261   2.2488   2.5943

          k = 0.0000 0.4619 0.0000 ( 48764 PWs)   bands (ev):

   -78.6893 -61.1934 -61.1833 -61.1771 -47.8754 -47.8383 -47.8382 -35.4934
   -35.4220 -35.4126 -35.4058 -35.3898 -35.3756 -35.3570 -35.3460 -35.2686
   -14.6259 -14.0332 -13.7845 -13.3846 -13.2709 -13.2450 -12.9433 -12.8528
    -5.9492  -5.7474  -5.5948  -5.4616  -5.4528  -5.2659  -4.6431  -4.5054
    -4.2565  -4.2505  -3.8818  -3.8624  -3.5872  -3.5282  -3.3457  -3.2350
    -2.8857  -2.4147  -2.3775  -2.2473  -2.0984  -2.0723  -1.7695  -1.6784
    -1.5490  -1.1839  -1.0743  -1.0264   0.5544   0.8066   0.8654   0.9250
     1.4788   1.5157   1.5549   1.8779   1.8820   2.0168   2.0414   2.3424

          k = 0.0000-0.5774 0.0000 ( 48748 PWs)   bands (ev):

   -78.6893 -61.1922 -61.1845 -61.1771 -47.8754 -47.8383 -47.8382 -35.4894
   -35.4099 -35.4009 -35.3925 -35.3910 -35.3756 -35.3715 -35.3712 -35.2693
   -14.4143 -14.2695 -13.7115 -13.4678 -13.2760 -13.2480 -12.9461 -12.8518
    -5.8509  -5.6302  -5.4596  -5.4500  -5.3580  -5.2025  -4.6258  -4.2328
    -4.2063  -4.1504  -4.0854  -3.9322  -3.8071  -3.6256  -3.6065  -3.4476
    -2.7378  -2.5833  -2.3490  -2.0851  -2.0640  -1.9654  -1.9394  -1.8050
    -1.3925  -1.3731  -1.0814  -1.0360   0.5445   0.7685   0.8688   0.9136
     1.4135   1.4867   1.6098   1.8114   1.8443   1.9910   2.0797   2.1311

          k = 0.1000 0.1732 0.0000 ( 48791 PWs)   bands (ev):

   -78.6893 -61.1982 -61.1785 -61.1771 -47.8754 -47.8383 -47.8383 -35.5285
   -35.4534 -35.4447 -35.4235 -35.3788 -35.3756 -35.3233 -35.2770 -35.2629
   -15.0606 -14.0082 -13.3900 -13.3219 -13.1724 -13.1081 -12.9160 -12.8491
    -6.4320  -6.3129  -6.2482  -6.0487  -5.6312  -5.4328  -5.3031  -4.4868
    -4.4261  -4.4069  -3.4990  -3.4040  -3.2326  -2.9774  -2.8040  -2.6205
    -2.5118  -2.3165  -2.2626  -2.2302  -1.9391  -1.9240  -1.6118  -1.5846
    -1.2746  -1.0976  -0.9798  -0.9421   0.5440   0.6179   0.9626   1.4871
     1.5248   1.6767   1.8292   1.8985   2.2345   2.4732   2.5226   2.9029

          k = 0.1000 0.2887 0.0000 ( 48778 PWs)   bands (ev):

   -78.6893 -61.1964 -61.1803 -61.1771 -47.8754 -47.8383 -47.8382 -35.5117
   -35.4490 -35.4301 -35.4195 -35.3828 -35.3756 -35.3351 -35.2979 -35.2673
   -14.9208 -13.9327 -13.5924 -13.4016 -13.1907 -13.1336 -12.9673 -12.8280
    -6.2510  -6.0718  -5.9533  -5.8839  -5.5892  -5.2985  -5.0653  -4.5139
    -4.4054  -4.3719  -3.5940  -3.4949  -3.3006  -3.1980  -3.0458  -2.7917
    -2.5249  -2.4740  -2.2824  -2.2645  -2.1696  -2.1241  -1.8052  -1.4947
    -1.3441  -1.1282  -0.9954  -0.9417   0.5456   0.7131   0.9159   1.2123
     1.4260   1.6124   1.8492   1.8550   1.9257   2.2616   2.3103   2.7175

          k = 0.1000 0.4041 0.0000 ( 48753 PWs)   bands (ev):

   -78.6893 -61.1942 -61.1825 -61.1771 -47.8754 -47.8383 -47.8382 -35.4947
   -35.4376 -35.4144 -35.4101 -35.3879 -35.3756 -35.3546 -35.3245 -35.2710
   -14.7205 -13.8679 -13.8286 -13.4502 -13.3142 -13.1089 -13.0026 -12.8095
    -6.0157  -5.8026  -5.6770  -5.5961  -5.5833  -5.1337  -4.6973  -4.6007
    -4.3575  -4.3010  -3.7730  -3.7044  -3.5621  -3.3537  -3.3532  -3.0982
    -2.7618  -2.4792  -2.3958  -2.3355  -2.1173  -2.0189  -1.8851  -1.5148
    -1.4406  -1.1547  -1.1064  -0.9278   0.5256   0.7591   0.9048   0.9708
     1.3629   1.5290   1.6222   1.7706   1.9450   2.1069   2.1175   2.3862

          k = 0.1000 0.5196 0.0000 ( 48763 PWs)   bands (ev):

   -78.6893 -61.1922 -61.1845 -61.1771 -47.8754 -47.8383 -47.8382 -35.4857
   -35.4163 -35.4099 -35.3925 -35.3883 -35.3799 -35.3756 -35.3502 -35.2728
   -14.4783 -14.1560 -13.7222 -13.4754 -13.4367 -13.0971 -13.0188 -12.7990
[...]

     per-process dynamical memory:   128.9 Mb

     Self-consistent Calculation

     iteration #  1     ecut=    70.00 Ry     beta=0.70
     CG style diagonalization
     c_bands:  1 eigenvalues not converged
     ethr =  1.00E-06,  avg # of iterations =  4.2

     Threshold (ethr) on eigenvalues was too large:
     Diagonalizing with lowered threshold

     CG style diagonalization
     c_bands:  2 eigenvalues not converged
     c_bands:  4 eigenvalues not converged
     c_bands:  4 eigenvalues not converged
     c_bands:  5 eigenvalues not converged
     c_bands:  5 eigenvalues not converged
     ethr =  2.31E-08,  avg # of iterations =  9.7

     negative rho (up, down):  1.097E-03 0.000E+00

     total cpu time spent up to now is    10853.7 secs

     total energy              =    -975.68319069 Ry
     Harris-Foulkes estimate   =    -975.68321326 Ry
     estimated scf accuracy    <       0.00003265 Ry

     iteration #  2     ecut=    70.00 Ry     beta=0.70
     CG style diagonalization
     ethr =  3.11E-08,  avg # of iterations =  4.0

     negative rho (up, down):  1.088E-03 0.000E+00

     total cpu time spent up to now is    10935.0 secs

     total energy              =    -975.68308936 Ry
     Harris-Foulkes estimate   =    -975.68329996 Ry
     estimated scf accuracy    <       0.00206854 Ry

     iteration #  3     ecut=    70.00 Ry     beta=0.70
     CG style diagonalization
     ethr =  3.11E-08,  avg # of iterations =  3.9

     negative rho (up, down):  1.095E-03 0.000E+00

     total cpu time spent up to now is    11014.4 secs

     total energy              =    -975.68319833 Ry
     Harris-Foulkes estimate   =    -975.68321460 Ry
     estimated scf accuracy    <       0.00010258 Ry

     iteration #  4     ecut=    70.00 Ry     beta=0.70
     CG style diagonalization
     ethr =  3.11E-08,  avg # of iterations =  3.4

     negative rho (up, down):  1.096E-03 0.000E+00

     total cpu time spent up to now is    11083.8 secs

     total energy              =    -975.68320518 Ry
     Harris-Foulkes estimate   =    -975.68320742 Ry
     estimated scf accuracy    <       0.00000522 Ry

     iteration #  5     ecut=    70.00 Ry     beta=0.70
     CG style diagonalization
     ethr =  4.97E-09,  avg # of iterations =  3.7

     negative rho (up, down):  1.095E-03 0.000E+00

     total cpu time spent up to now is    11158.2 secs

     total energy              =    -975.68320645 Ry
     Harris-Foulkes estimate   =    -975.68320819 Ry
     estimated scf accuracy    <       0.00000649 Ry

     iteration #  6     ecut=    70.00 Ry     beta=0.70
     CG style diagonalization
     ethr =  4.97E-09,  avg # of iterations =  3.2

     negative rho (up, down):  1.096E-03 0.000E+00

     total cpu time spent up to now is    11221.7 secs

     total energy              =    -975.68320723 Ry
     Harris-Foulkes estimate   =    -975.68320727 Ry
     estimated scf accuracy    <       0.00000011 Ry

     iteration #  7     ecut=    70.00 Ry     beta=0.70
     CG style diagonalization
     ethr =  1.09E-10,  avg # of iterations =  4.6

     negative rho (up, down):  1.096E-03 0.000E+00

     total cpu time spent up to now is    11317.1 secs

     total energy              =    -975.68320733 Ry
     Harris-Foulkes estimate   =    -975.68320739 Ry
     estimated scf accuracy    <       0.00000027 Ry

     iteration #  8     ecut=    70.00 Ry     beta=0.70
     CG style diagonalization
     ethr =  1.09E-10,  avg # of iterations =  3.5

     negative rho (up, down):  1.096E-03 0.000E+00

     total cpu time spent up to now is    11388.7 secs

     total energy              =    -975.68320736 Ry
     Harris-Foulkes estimate   =    -975.68320737 Ry
     estimated scf accuracy    <       0.00000003 Ry

     iteration #  9     ecut=    70.00 Ry     beta=0.70
     CG style diagonalization
     ethr =  3.06E-11,  avg # of iterations =  3.8

     negative rho (up, down):  1.096E-03 0.000E+00

     total cpu time spent up to now is    11466.7 secs

     total energy              =    -975.68320737 Ry
     Harris-Foulkes estimate   =    -975.68320737 Ry
     estimated scf accuracy    <          9.3E-10 Ry

     iteration # 10     ecut=    70.00 Ry     beta=0.70
     CG style diagonalization
     ethr =  8.85E-13,  avg # of iterations =  7.4

     negative rho (up, down):  1.096E-03 0.000E+00

     total cpu time spent up to now is    11624.0 secs

     total energy              =    -975.68320737 Ry
     Harris-Foulkes estimate   =    -975.68320737 Ry
     estimated scf accuracy    <          9.6E-10 Ry

     iteration # 11     ecut=    70.00 Ry     beta=0.70
     CG style diagonalization
     ethr =  8.85E-13,  avg # of iterations =  3.5

     negative rho (up, down):  1.096E-03 0.000E+00

     total cpu time spent up to now is    11695.3 secs

     total energy              =    -975.68320737 Ry
     Harris-Foulkes estimate   =    -975.68320737 Ry
     estimated scf accuracy    <          1.2E-10 Ry

     iteration # 12     ecut=    70.00 Ry     beta=0.70
     CG style diagonalization
     ethr =  1.12E-13,  avg # of iterations =  5.3

     negative rho (up, down):  1.096E-03 0.000E+00

     total cpu time spent up to now is    11806.9 secs

     End of self-consistent calculation

          k = 0.0000 0.0000 0.0000 ( 48761 PWs)   bands (ev):

   -78.6947 -61.1965 -61.1735 -61.1734 -47.8682 -47.8622 -47.8622 -35.5430
   -35.4578 -35.4577 -35.4156 -35.3638 -35.3638 -35.3172 -35.2550 -35.2550
   -15.2232 -14.0917 -13.2726 -13.2725 -13.2452 -13.0792 -12.8605 -12.8604
    -6.5825  -6.5470  -6.5469  -6.2120  -5.7865  -5.4765  -5.4764  -4.5491
    -4.4466  -4.4465  -3.4673  -3.3155  -3.3155  -2.7509  -2.7509  -2.7269
    -2.3703  -2.2945  -2.2945  -1.7794  -1.7794  -1.6965  -1.6965  -1.3369
    -1.2492  -1.0701  -1.0701  -0.9090   0.4979   0.4979   1.0161   1.5255
     1.7551   1.7551   1.9927   1.9927   2.7150   2.7150   2.7778   2.7779

          k = 0.0000 0.1155 0.0000 ( 48801 PWs)   bands (ev):

   -78.6947 -61.1961 -61.1740 -61.1735 -47.8682 -47.8622 -47.8622 -35.5380
   -35.4568 -35.4541 -35.4145 -35.3649 -35.3638 -35.3197 -35.2613 -35.2562
   -15.1872 -14.0725 -13.3460 -13.2778 -13.2394 -13.0989 -12.8739 -12.8593
    -6.5425  -6.4827  -6.4452  -6.1658  -5.7287  -5.4790  -5.4211  -4.5411
    -4.4461  -4.4392  -3.4681  -3.3693  -3.2924  -2.8452  -2.7622  -2.7219
    -2.4545  -2.2786  -2.2695  -1.8913  -1.8489  -1.8341  -1.6959  -1.4046
    -1.3140  -1.0678  -1.0219  -0.9148   0.5195   0.5316   1.0032   1.5435
     1.7101   1.7646   1.8446   1.9989   2.5247   2.6537   2.6620   2.8302

          k = 0.0000 0.2309 0.0000 ( 48770 PWs)   bands (ev):

   -78.6947 -61.1947 -61.1753 -61.1735 -47.8682 -47.8622 -47.8621 -35.5245
   -35.4532 -35.4435 -35.4114 -35.3680 -35.3638 -35.3275 -35.2793 -35.2593
   -15.0811 -14.0163 -13.5275 -13.2915 -13.2445 -13.1644 -12.9004 -12.8563
    -6.4011  -6.3006  -6.1964  -6.0281  -5.5854  -5.4846  -5.2421  -4.5376
    -4.4385  -4.4153  -3.5192  -3.4814  -3.2194  -3.1083  -2.9288  -2.6399
    -2.5109  -2.3216  -2.2645  -2.2260  -2.2243  -1.9838  -1.5697  -1.5362
    -1.4343  -1.0928  -0.9853  -0.9377   0.5467   0.6230   0.9721   1.5148
     1.5646   1.6103   1.8041   2.0105   2.1235   2.3916   2.4872   2.9184

          k = 0.0000 0.3464 0.0000 ( 48772 PWs)   bands (ev):

   -78.6947 -61.1928 -61.1773 -61.1735 -47.8682 -47.8622 -47.8621 -35.5076
   -35.4439 -35.4271 -35.4069 -35.3726 -35.3638 -35.3409 -35.3067 -35.2626
   -14.9111 -13.9284 -13.7831 -13.3082 -13.2753 -13.2538 -12.9205 -12.8526
    -6.1900  -6.0381  -5.8950  -5.7848  -5.4898  -5.4150  -4.9330  -4.5977
    -4.3881  -4.3653  -3.7243  -3.5159  -3.4845  -3.2174  -3.0931  -2.8442
    -2.8174  -2.4749  -2.4684  -2.2040  -2.1585  -2.1243  -1.6141  -1.5994
    -1.5387  -1.1307  -1.0376  -0.9617   0.5411   0.7493   0.9223   1.2052
     1.5080   1.5745   1.7419   1.8589   2.0073   2.1298   2.2623   2.5682

          k = 0.0000 0.4619 0.0000 ( 48764 PWs)   bands (ev):

   -78.6947 -61.1907 -61.1794 -61.1735 -47.8682 -47.8621 -47.8621 -35.4955
   -35.4254 -35.4070 -35.4020 -35.3776 -35.3638 -35.3590 -35.3382 -35.2649
   -14.6918 -14.0681 -13.8240 -13.4034 -13.3215 -13.2616 -12.9308 -12.8496
    -5.9787  -5.7781  -5.6497  -5.4926  -5.4857  -5.2635  -4.6924  -4.5510
    -4.2931  -4.2650  -3.9088  -3.8851  -3.5633  -3.5546  -3.3709  -3.2563
    -2.9207  -2.4367  -2.4157  -2.2824  -2.0621  -2.0341  -1.8113  -1.6346
    -1.5605  -1.1859  -1.1576  -0.9787   0.5180   0.8521   0.8702   1.0288
     1.4216   1.5242   1.6133   1.8612   1.9575   2.0118   2.0671   2.3270

          k = 0.0000-0.5774 0.0000 ( 48748 PWs)   bands (ev):

   -78.6947 -61.1897 -61.1804 -61.1735 -47.8682 -47.8621 -47.8621 -35.4917
   -35.4099 -35.3995 -35.3913 -35.3801 -35.3741 -35.3638 -35.3578 -35.2656
   -14.5148 -14.2694 -13.7609 -13.4761 -13.3265 -13.2646 -12.9338 -12.8484
    -5.8825  -5.6615  -5.5170  -5.4933  -5.3783  -5.1966  -4.7070  -4.3018
    -4.1981  -4.1583  -4.1298  -3.9394  -3.8435  -3.6558  -3.5714  -3.4588
    -2.7676  -2.6133  -2.3878  -2.0923  -2.0102  -1.9937  -1.9847  -1.7314
    -1.4053  -1.3728  -1.1668  -0.9866   0.5068   0.8140   0.9228   0.9774
     1.3782   1.4731   1.6926   1.7632   1.9100   2.0195   2.0685   2.1196

          k = 0.1000 0.1732 0.0000 ( 48791 PWs)   bands (ev):

   -78.6947 -61.1952 -61.1749 -61.1735 -47.8682 -47.8622 -47.8622 -35.5287
   -35.4551 -35.4465 -35.4124 -35.3670 -35.3638 -35.3249 -35.2728 -35.2590
   -15.1161 -14.0347 -13.4440 -13.3510 -13.2047 -13.1401 -12.9054 -12.8471
    -6.4525  -6.3452  -6.2824  -6.0743  -5.6461  -5.4512  -5.3171  -4.5319
    -4.4430  -4.4277  -3.4949  -3.4256  -3.2781  -3.0225  -2.8645  -2.6679
    -2.5051  -2.2741  -2.2523  -2.2262  -2.0145  -1.9549  -1.5997  -1.5817
    -1.3303  -1.1054  -0.9717  -0.9315   0.5278   0.6074   0.9783   1.5304
     1.6136   1.6588   1.8013   1.9872   2.2430   2.4918   2.5314   2.9079

          k = 0.1000 0.2887 0.0000 ( 48778 PWs)   bands (ev):

   -78.6947 -61.1935 -61.1765 -61.1735 -47.8682 -47.8622 -47.8621 -35.5126
   -35.4506 -35.4318 -35.4086 -35.3709 -35.3638 -35.3365 -35.2934 -35.2634
   -14.9779 -13.9624 -13.6422 -13.4310 -13.2239 -13.1669 -12.9508 -12.8260
    -6.2732  -6.1074  -6.0102  -5.8913  -5.6064  -5.3169  -5.0896  -4.5506
    -4.4284  -4.3991  -3.6179  -3.4762  -3.3402  -3.2428  -3.0849  -2.8306
    -2.5570  -2.4926  -2.3384  -2.2016  -2.1710  -2.1260  -1.8038  -1.4775
    -1.3926  -1.1580  -0.9879  -0.9351   0.5220   0.7123   0.9393   1.3035
     1.4290   1.6294   1.8756   1.8900   1.9213   2.2937   2.3220   2.6842

          k = 0.1000 0.4041 0.0000 ( 48753 PWs)   bands (ev):

   -78.6947 -61.1914 -61.1787 -61.1735 -47.8682 -47.8621 -47.8621 -35.4966
   -35.4394 -35.4120 -35.4037 -35.3758 -35.3638 -35.3548 -35.3197 -35.2671
   -14.7820 -13.9100 -13.8641 -13.4816 -13.3414 -13.1422 -12.9848 -12.8074
    -6.0406  -5.8407  -5.7360  -5.6090  -5.6088  -5.1458  -4.7345  -4.6392
    -4.3837  -4.3326  -3.8016  -3.7302  -3.5316  -3.3925  -3.3829  -3.1309
    -2.7887  -2.4874  -2.4286  -2.3738  -2.0840  -1.9870  -1.9039  -1.4839
    -1.4739  -1.1976  -1.1021  -0.9218   0.4917   0.7923   0.9142   1.0699
     1.3407   1.5624   1.6341   1.8216   1.9221   2.1342   2.1348   2.3632

          k = 0.1000 0.5196 0.0000 ( 48763 PWs)   bands (ev):

   -78.6947 -61.1897 -61.1804 -61.1735 -47.8682 -47.8621 -47.8621 -35.4882
   -35.4204 -35.3995 -35.3935 -35.3801 -35.3746 -35.3638 -35.3447 -35.2690
   -14.5572 -14.1792 -13.7684 -13.5076 -13.4520 -13.1304 -13.0014 -12.7968
    -5.8550  -5.6426  -5.6146  -5.5301  -5.3848  -5.0161  -4.7121  -4.3633
    -4.3227  -4.2120  -4.0632  -3.9318  -3.8328  -3.7303  -3.5616  -3.0955
    -2.9764  -2.7279  -2.4267  -2.1934  -2.0053  -1.9805  -1.8538  -1.5895
    -1.4492  -1.2886  -1.2065  -0.9172   0.4606   0.7992   0.9277   0.9648
     1.3211   1.4280   1.6509   1.7767   1.7827   2.0163   2.1150   2.1271

          k = 0.2000 0.3464 0.0000 ( 48776 PWs)   bands (ev):

   -78.6947 -61.1917 -61.1784 -61.1735 -47.8682 -47.8621 -47.8621 -35.4957
   -35.4467 -35.4127 -35.4043 -35.3752 -35.3639 -35.3543 -35.3096 -35.2703
   -14.8131 -13.8784 -13.7789 -13.6224 -13.3076 -13.0906 -13.0245 -12.7833
    -6.0615  -5.8348  -5.7716  -5.6787  -5.6751  -5.0043  -4.8668  -4.5866
    -4.4492  -4.3723  -3.7055  -3.6713  -3.4798  -3.3888  -3.3692  -3.2756
    -2.5487  -2.5029  -2.4612  -2.3652  -2.1110  -2.0670  -1.9525  -1.3843
    -1.3748  -1.2376  -1.0742  -0.8793   0.4638   0.7613   0.9339   1.0842
     1.2614   1.5781   1.6594   1.7386   1.9554   2.1664   2.1951   2.3725

          k = 0.2000 0.4619 0.0000 ( 48790 PWs)   bands (ev):

   -78.6947 -61.1897 -61.1804 -61.1735 -47.8682 -47.8621 -47.8621 -35.4804
   -35.4370 -35.3995 -35.3944 -35.3800 -35.3748 -35.3639 -35.3277 -35.2761
   -14.6023 -14.0049 -13.7791 -13.7234 -13.4081 -13.0780 -13.0424 -12.7525
    -5.8038  -5.7252  -5.6097  -5.5267  -5.4350  -4.7584  -4.6868  -4.5050
    -4.4677  -4.3554  -4.0164  -3.8440  -3.8234  -3.5913  -3.5169  -3.3197
    -2.9024  -2.6578  -2.4901  -2.2878  -2.1880  -1.9196  -1.7427  -1.3957
    -1.3888  -1.2778  -1.2121  -0.8286   0.3927   0.7637   0.9397   0.9426
     1.1898   1.4062   1.6110   1.6238   1.7800   1.9817   2.1109   2.2473

          k = 0.2000 0.5774 0.0000 ( 48766 PWs)   bands (ev):

   -78.6947 -61.1886 -61.1815 -61.1735 -47.8682 -47.8621 -47.8621 -35.4749
   -35.4237 -35.4034 -35.3969 -35.3827 -35.3698 -35.3639 -35.3406 -35.2782
   -14.4369 -14.1857 -13.7496 -13.7193 -13.4696 -13.0964 -13.0261 -12.7414
    -5.7434  -5.6629  -5.5105  -5.4086  -5.3175  -4.7525  -4.6523  -4.4855
    -4.3657  -4.2321  -4.1800  -4.0211  -3.8795  -3.8124  -3.5527  -3.2093
    -3.1460  -2.7707  -2.4990  -2.2198  -2.1801  -1.8464  -1.6172  -1.4499
    -1.3676  -1.3527  -1.2702  -0.8073   0.3588   0.7707   0.8929   0.9265
     1.2172   1.3040   1.6038   1.6038   1.6888   1.8675   2.0046   2.2928

          k = 0.3000 0.5196 0.0000 ( 48786 PWs)   bands (ev):

   -78.6947 -61.1881 -61.1819 -61.1735 -47.8682 -47.8621 -47.8621 -35.4648
   -35.4318 -35.4094 -35.3956 -35.3840 -35.3652 -35.3639 -35.3355 -35.2842
   -14.4103 -14.0748 -13.9327 -13.7007 -13.4669 -13.1410 -12.9894 -12.7209
    -5.7909  -5.5167  -5.4687  -5.3430  -5.3078  -4.8101  -4.5647  -4.5283
    -4.4068  -4.2577  -4.2046  -4.0142  -3.8315  -3.7527  -3.5070  -3.4858
    -3.3156  -2.5343  -2.4973  -2.3597  -2.2623  -1.7851  -1.5314  -1.3684
    -1.3653  -1.3365  -1.2984  -0.7543   0.3082   0.7686   0.8562   0.9168
     1.1320   1.2754   1.5306   1.5496   1.6884   1.7843   1.9694   2.3785

     the Fermi energy is     0.4679 ev

!    total energy              =    -975.68320737 Ry
     Harris-Foulkes estimate   =    -975.68320737 Ry
     estimated scf accuracy    <          7.3E-11 Ry

     The total energy is the sum of the following terms:

     one-electron contribution =   -4430.80511731 Ry
     hartree contribution      =    2220.32618163 Ry
     xc contribution           =    -318.70839679 Ry
     ewald contribution        =    1553.50929429 Ry
     smearing contrib. (-TS)   =      -0.00516920 Ry

     convergence has been achieved in  12 iterations

     negative rho (up, down):  1.096E-03 0.000E+00

     Forces acting on atoms (Ry/au):

     atom    1 type  3   force =     0.00000000    0.00000000    0.00000347
     atom    2 type  1   force =     0.00001886    0.00001089   -0.00000642
     atom    3 type  1   force =     0.00000000   -0.00002178   -0.00000642
     atom    4 type  1   force =    -0.00001886    0.00001089   -0.00000642
     atom    5 type  2   force =    -0.00003612    0.00002085   -0.00051578
     atom    6 type  2   force =     0.00000000   -0.00004171   -0.00051578
     atom    7 type  2   force =     0.00003612    0.00002085   -0.00051578
     atom    8 type  2   force =     0.00000000    0.00000000    0.00037764
     atom    9 type  2   force =    -0.00003373    0.00001947    0.00051842
     atom   10 type  2   force =     0.00000000   -0.00003895    0.00051842
     atom   11 type  2   force =     0.00003373    0.00001947    0.00051842
     atom   12 type  2   force =     0.00000000    0.00000000   -0.00036980

     Total force =     0.001377     Total SCF correction =     0.000019


     entering subroutine stress ...


     negative rho (up, down):  1.096E-03 0.000E+00
          total   stress  (Ry/bohr**3)                   (kbar)     P=   -2.29
  -0.00002213   0.00000000   0.00000000         -3.26      0.00      0.00
   0.00000000  -0.00002213   0.00000000          0.00     -3.26      0.00
   0.00000000   0.00000000  -0.00000251          0.00      0.00     -0.37


     bfgs converged in   9 scf cycles and   8 bfgs steps
     (criteria: energy <  1.0E-04, force <  1.0E-03)

     End of BFGS Geometry Optimization

     Final energy   =    -975.6832073734 Ry
Begin final coordinates

ATOMIC_POSITIONS (angstrom)
Mn      -0.000000000   1.875085000   3.183912408
Mo      -1.655185043   4.669632829   3.183910899
Mo       3.247742000   1.911243342   3.183910899
Mo       1.655185043   4.669632829   3.183910899
Se       1.551886446   0.979102302   4.766686390
Se       0.000000000   3.667048396   4.766686390
Se       4.943597554   0.979102302   4.766686390
Se       3.247742000   3.750169000   4.866172251
Se       1.551879744   0.979106171   1.601129474
Se       0.000000000   3.667040658   1.601129474
Se       4.943604256   0.979106171   1.601129474
Se       3.247742000   3.750169000   1.501631053
End final coordinates



     Writing output data file mose2_mn.save
 
     init_run     :     11.54s CPU     11.89s WALL (       1 calls)
     electrons    :  11318.88s CPU  11410.96s WALL (       9 calls)
     update_pot   :     17.14s CPU     20.11s WALL (       8 calls)
     forces       :     59.43s CPU     61.80s WALL (       9 calls)
     stress       :    313.93s CPU    320.21s WALL (       9 calls)

     Called by init_run:
     wfcinit      :      5.91s CPU      5.95s WALL (       1 calls)
     potinit      :      0.63s CPU      0.64s WALL (       1 calls)

     Called by electrons:
     c_bands      :  10117.62s CPU  10140.72s WALL (     121 calls)
     sum_band     :    894.08s CPU    932.10s WALL (     121 calls)
     v_of_rho     :      4.78s CPU      4.80s WALL (     126 calls)
     newd         :    312.97s CPU    342.69s WALL (     126 calls)
     mix_rho      :      7.00s CPU      7.01s WALL (     121 calls)

     Called by c_bands:
     init_us_2    :     57.75s CPU     57.79s WALL (    3654 calls)
     ccgdiagg     :   9597.12s CPU   9618.63s WALL (    1753 calls)
     wfcrot       :    492.99s CPU    494.39s WALL (    1585 calls)

     Called by sum_band:
     sum_band:bec :      0.29s CPU      0.29s WALL (    1694 calls)
     addusdens    :    472.55s CPU    509.51s WALL (     121 calls)

     Called by *cgdiagg:
     h_psi        :   5417.51s CPU   5430.85s WALL (  389578 calls)
     s_psi        :   2859.04s CPU   2864.46s WALL (  777571 calls)
     cdiaghg      :      2.32s CPU      2.41s WALL (    1585 calls)

     Called by h_psi:
     add_vuspsi   :   1435.03s CPU   1436.82s WALL (  389578 calls)
     h_1psi       :   6420.06s CPU   6435.10s WALL (  387993 calls)

     General routines
     calbec       :   2894.86s CPU   2901.23s WALL (  779895 calls)
     fft          :     33.39s CPU     33.46s WALL (    1194 calls)
     ffts         :      0.53s CPU      0.53s WALL (     247 calls)
     fftw         :   1137.54s CPU   1141.44s WALL ( 1087842 calls)
     interpolate  :      5.47s CPU      5.49s WALL (     247 calls)
     davcio       :      0.02s CPU      0.97s WALL (      14 calls)
 
     Parallel routines
     fft_scatter  :    608.76s CPU    611.88s WALL ( 1089283 calls)
 
     PWSCF        :     3h15m CPU        3h17m WALL

 
   This run was terminated on:  17:32:19  26Apr2017            

=------------------------------------------------------------------------------=
   JOB DONE.
=------------------------------------------------------------------------------=
