
     Program PWSCF v.5.4.0 starts on 26Apr2017 at 15:50:18 

     This program is part of the open-source Quantum ESPRESSO suite
     for quantum simulation of materials; please cite
         "P. Giannozzi et al., J. Phys.:Condens. Matter 21 395502 (2009);
          URL http://www.quantum-espresso.org", 
     in publications or presentations arising from this work. More details at
     http://www.quantum-espresso.org/quote

     Parallel version (MPI), running on    24 processors
     R & G space division:  proc/nbgrp/npool/nimage =      24
     Waiting for input...
     Reading input from standard input
Warning: card &CELL ignored
Warning: card  CELL_DYNAMICS = 'BFGS', ignored
Warning: card  PRESS=0.1D0, ignored
Warning: card / ignored

     Current dimensions of program PWSCF are:
     Max number of different atomic species (ntypx) = 10
     Max number of k-points (npk) =  40000
     Max angular momentum in pseudopotentials (lmaxx) =  3

     Subspace diagonalization in iterative solution of the eigenvalue problem:
     a serial algorithm will be used

 
     Parallelization info
     --------------------
     sticks:   dense  smooth     PW     G-vecs:    dense   smooth      PW
     Min         302     121     32                64272    16243    2260
     Max         303     122     33                64287    16271    2275
     Sum        7267    2905    769              1542757   390237   54333
 


     bravais-lattice index     =            4
     lattice parameter (alat)  =      12.2747  a.u.
     unit-cell volume          =    4931.5212 (a.u.)^3
     number of atoms/cell      =           12
     number of atomic types    =            3
     number of electrons       =       103.00
     number of Kohn-Sham states=           62
     kinetic-energy cutoff     =      70.0000  Ry
     charge density cutoff     =     700.0000  Ry
     convergence threshold     =      1.0E-08
     mixing beta               =       0.7000
     number of iterations used =            8  plain     mixing
     Exchange-correlation      = SLA  PZ   NOGX NOGC ( 1  1  0  0 0 0)
     nstep                     =           50


     celldm(1)=  12.274692  celldm(2)=   0.000000  celldm(3)=   3.079062
     celldm(4)=   0.000000  celldm(5)=   0.000000  celldm(6)=   0.000000

     crystal axes: (cart. coord. in units of alat)
               a(1) = (   1.000000   0.000000   0.000000 )  
               a(2) = (  -0.500000   0.866025   0.000000 )  
               a(3) = (   0.000000   0.000000   3.079062 )  

     reciprocal axes: (cart. coord. in units 2 pi/alat)
               b(1) = (  1.000000  0.577350  0.000000 )  
               b(2) = (  0.000000  1.154701  0.000000 )  
               b(3) = (  0.000000  0.000000  0.324774 )  


     PseudoPot. # 1 for Mo read from file:
     /afs/crc.nd.edu/user/j/jencomen/espresso/pseudo/Mo_LDA.UPF
     MD5 check sum: f5ddb34c5c8cdf9395e9f47ee8c17b30
     Pseudo is Ultrasoft + core correction, Zval = 14.0
     Generated by new atomic code, or converted to UPF format
     Using radial grid of  889 points,  6 beta functions with: 
                l(1) =   0
                l(2) =   0
                l(3) =   1
                l(4) =   1
                l(5) =   2
                l(6) =   2
     Q(r) pseudized with  6 coefficients,  rinner =    1.000   1.000   1.000
                                                       1.000   1.000

     PseudoPot. # 2 for Se read from file:
     /afs/crc.nd.edu/user/j/jencomen/espresso/pseudo/Se_LDA.UPF
     MD5 check sum: 29da00cbf48820a058e3666752a4b224
     Pseudo is Ultrasoft + core correction, Zval =  6.0
     Generated by new atomic code, or converted to UPF format
     Using radial grid of  877 points,  6 beta functions with: 
                l(1) =   0
                l(2) =   0
                l(3) =   1
                l(4) =   1
                l(5) =   2
                l(6) =   2
     Q(r) pseudized with  8 coefficients,  rinner =    1.300   1.300   1.300
                                                       1.300   1.300

     PseudoPot. # 3 for As read from file:
     /afs/crc.nd.edu/user/j/jencomen/espresso/pseudo/As_LDA.UPF
     MD5 check sum: 6d2e8cbe4ed9d0db7c6ef7a361cc050d
     Pseudo is Ultrasoft + core correction, Zval =  5.0
     Generated by new atomic code, or converted to UPF format
     Using radial grid of  875 points,  6 beta functions with: 
                l(1) =   0
                l(2) =   0
                l(3) =   1
                l(4) =   1
                l(5) =   2
                l(6) =   2
     Q(r) pseudized with  8 coefficients,  rinner =    1.300   1.300   1.300
                                                       1.300   1.300

     atomic species   valence    mass     pseudopotential
        Mo            14.00    95.95000     Mo( 1.00)
        Se             6.00    78.97100     Se( 1.00)
        As             5.00    74.92100     As( 1.00)

      6 Sym. Ops. (no inversion) found



   Cartesian axes

     site n.     atom                  positions (alat units)
         1           Mo  tau(   1) = (   0.0000000   0.2886750   0.4901723  )
         2           Mo  tau(   2) = (  -0.2499999   0.7216875   0.4901723  )
         3           Mo  tau(   3) = (   0.4999997   0.2886750   0.4901723  )
         4           Mo  tau(   4) = (   0.2499999   0.7216875   0.4901723  )
         5           Se  tau(   5) = (   0.2499999   0.1443374   0.7431011  )
         6           As  tau(   6) = (   0.0000000   0.5773499   0.7431011  )
         7           Se  tau(   7) = (   0.7499996   0.1443374   0.7431011  )
         8           Se  tau(   8) = (   0.4999997   0.5773499   0.7431011  )
         9           Se  tau(   9) = (   0.2499999   0.1443374   0.2372435  )
        10           Se  tau(  10) = (   0.0000000   0.5773499   0.2372435  )
        11           Se  tau(  11) = (   0.7499996   0.1443374   0.2372435  )
        12           Se  tau(  12) = (   0.4999997   0.5773499   0.2372435  )

     number of k points=    14  gaussian smearing, width (Ry)=  0.0100
                       cart. coord. in units 2pi/alat
        k(    1) = (   0.0000000   0.0000000   0.0000000), wk =   0.0200000
        k(    2) = (   0.0000000   0.1154701   0.0000000), wk =   0.1200000
        k(    3) = (   0.0000000   0.2309401   0.0000000), wk =   0.1200000
        k(    4) = (   0.0000000   0.3464102   0.0000000), wk =   0.1200000
        k(    5) = (   0.0000000   0.4618802   0.0000000), wk =   0.1200000
        k(    6) = (   0.0000000  -0.5773503   0.0000000), wk =   0.0600000
        k(    7) = (   0.1000000   0.1732051   0.0000000), wk =   0.1200000
        k(    8) = (   0.1000000   0.2886751   0.0000000), wk =   0.2400000
        k(    9) = (   0.1000000   0.4041452   0.0000000), wk =   0.2400000
        k(   10) = (   0.1000000   0.5196152   0.0000000), wk =   0.2400000
        k(   11) = (   0.2000000   0.3464102   0.0000000), wk =   0.1200000
        k(   12) = (   0.2000000   0.4618802   0.0000000), wk =   0.2400000
        k(   13) = (   0.2000000   0.5773503   0.0000000), wk =   0.1200000
        k(   14) = (   0.3000000   0.5196152   0.0000000), wk =   0.1200000

     Dense  grid:  1542757 G-vectors     FFT dimensions: ( 108, 108, 320)

     Smooth grid:   390237 G-vectors     FFT dimensions: (  72,  72, 216)

     Largest allocated arrays     est. size (Mb)     dimensions
        Kohn-Sham Wavefunctions         1.95 Mb     (    2064,   62)
        NL pseudopotentials             6.80 Mb     (    2064,  216)
        Each V/rho on FFT grid          2.49 Mb     (  163296)
        Each G-vector array             0.49 Mb     (   64287)
        G-vector shells                 0.20 Mb     (   26242)
     Largest temporary arrays     est. size (Mb)     dimensions
        Each subspace H/S matrix        0.06 Mb     (      62,   62)
        Each <psi_i|beta_j> matrix      0.20 Mb     (     216,   62)
        Arrays for rho mixing          19.93 Mb     (  163296,    8)

     Initial potential from superposition of free atoms
     Check: negative starting charge=   -0.000788

     starting charge  102.99596, renormalised to  103.00000

     negative rho (up, down):  7.878E-04 0.000E+00
     Starting wfc are   84 randomized atomic wfcs

     total cpu time spent up to now is       10.9 secs

     per-process dynamical memory:   104.2 Mb

     Self-consistent Calculation

     iteration #  1     ecut=    70.00 Ry     beta=0.70
     CG style diagonalization
     ethr =  1.00E-02,  avg # of iterations =  2.6

     negative rho (up, down):  3.585E-06 0.000E+00

     total cpu time spent up to now is       66.7 secs

     total energy              =    -899.75267278 Ry
     Harris-Foulkes estimate   =    -900.75414909 Ry
     estimated scf accuracy    <       1.22701995 Ry

     iteration #  2     ecut=    70.00 Ry     beta=0.70
     CG style diagonalization
     ethr =  1.19E-03,  avg # of iterations =  4.9

     negative rho (up, down):  1.129E-06 0.000E+00

     total cpu time spent up to now is      151.0 secs

     total energy              =    -899.03320897 Ry
     Harris-Foulkes estimate   =    -902.75582232 Ry
     estimated scf accuracy    <      13.55963304 Ry

     iteration #  3     ecut=    70.00 Ry     beta=0.70
     CG style diagonalization
     ethr =  1.19E-03,  avg # of iterations =  4.5

     negative rho (up, down):  2.174E-05 0.000E+00

     total cpu time spent up to now is      227.4 secs

     total energy              =    -900.51850702 Ry
     Harris-Foulkes estimate   =    -900.55308573 Ry
     estimated scf accuracy    <       0.08044958 Ry

     iteration #  4     ecut=    70.00 Ry     beta=0.70
     CG style diagonalization
     c_bands:  1 eigenvalues not converged
     c_bands:  1 eigenvalues not converged
     c_bands:  1 eigenvalues not converged
     ethr =  7.81E-05,  avg # of iterations =  4.9

     negative rho (up, down):  2.845E-05 0.000E+00

     total cpu time spent up to now is      311.1 secs

     total energy              =    -900.55827176 Ry
     Harris-Foulkes estimate   =    -900.64628473 Ry
     estimated scf accuracy    <       0.45053315 Ry

     iteration #  5     ecut=    70.00 Ry     beta=0.70
     CG style diagonalization
     ethr =  7.81E-05,  avg # of iterations =  3.7

     negative rho (up, down):  1.952E-05 0.000E+00

     total cpu time spent up to now is      372.4 secs

     total energy              =    -900.58972781 Ry
     Harris-Foulkes estimate   =    -900.60702655 Ry
     estimated scf accuracy    <       0.09840296 Ry

     iteration #  6     ecut=    70.00 Ry     beta=0.70
     CG style diagonalization
     ethr =  7.81E-05,  avg # of iterations =  3.1

     negative rho (up, down):  2.222E-05 0.000E+00

     total cpu time spent up to now is      421.2 secs

     total energy              =    -900.59379628 Ry
     Harris-Foulkes estimate   =    -900.59799166 Ry
     estimated scf accuracy    <       0.02344845 Ry

     iteration #  7     ecut=    70.00 Ry     beta=0.70
     CG style diagonalization
     ethr =  2.28E-05,  avg # of iterations =  3.2

     negative rho (up, down):  7.245E-05 0.000E+00

     total cpu time spent up to now is      471.8 secs

     total energy              =    -900.59517047 Ry
     Harris-Foulkes estimate   =    -900.59669688 Ry
     estimated scf accuracy    <       0.00505168 Ry

     iteration #  8     ecut=    70.00 Ry     beta=0.70
     CG style diagonalization
     ethr =  4.90E-06,  avg # of iterations =  4.3

     negative rho (up, down):  1.014E-04 0.000E+00

     total cpu time spent up to now is      544.1 secs

     total energy              =    -900.59648819 Ry
     Harris-Foulkes estimate   =    -900.59711553 Ry
     estimated scf accuracy    <       0.00252926 Ry

     iteration #  9     ecut=    70.00 Ry     beta=0.70
     CG style diagonalization
     ethr =  2.46E-06,  avg # of iterations =  3.4

     negative rho (up, down):  1.132E-04 0.000E+00

     total cpu time spent up to now is      599.6 secs

     total energy              =    -900.59682341 Ry
     Harris-Foulkes estimate   =    -900.59684400 Ry
     estimated scf accuracy    <       0.00007155 Ry

     iteration # 10     ecut=    70.00 Ry     beta=0.70
     CG style diagonalization
     ethr =  6.95E-08,  avg # of iterations =  5.7

     negative rho (up, down):  1.208E-04 0.000E+00

     total cpu time spent up to now is      698.5 secs

     total energy              =    -900.59691373 Ry
     Harris-Foulkes estimate   =    -900.59691773 Ry
     estimated scf accuracy    <       0.00001438 Ry

     iteration # 11     ecut=    70.00 Ry     beta=0.70
     CG style diagonalization
     ethr =  1.40E-08,  avg # of iterations =  5.3

     negative rho (up, down):  1.224E-04 0.000E+00

     total cpu time spent up to now is      788.8 secs

     total energy              =    -900.59692763 Ry
     Harris-Foulkes estimate   =    -900.59692833 Ry
     estimated scf accuracy    <       0.00000202 Ry

     iteration # 12     ecut=    70.00 Ry     beta=0.70
     CG style diagonalization
     ethr =  1.96E-09,  avg # of iterations =  6.2

     negative rho (up, down):  1.230E-04 0.000E+00

     total cpu time spent up to now is      897.1 secs

     total energy              =    -900.59693097 Ry
     Harris-Foulkes estimate   =    -900.59693104 Ry
     estimated scf accuracy    <       0.00000018 Ry

     iteration # 13     ecut=    70.00 Ry     beta=0.70
     CG style diagonalization
     ethr =  1.78E-10,  avg # of iterations =  6.1

     negative rho (up, down):  1.230E-04 0.000E+00

     total cpu time spent up to now is     1004.7 secs

     total energy              =    -900.59693131 Ry
     Harris-Foulkes estimate   =    -900.59693132 Ry
     estimated scf accuracy    <       0.00000002 Ry

     iteration # 14     ecut=    70.00 Ry     beta=0.70
     CG style diagonalization
     ethr =  1.82E-11,  avg # of iterations =  6.3

     negative rho (up, down):  1.231E-04 0.000E+00

     total cpu time spent up to now is     1122.1 secs

     total energy              =    -900.59693134 Ry
     Harris-Foulkes estimate   =    -900.59693135 Ry
     estimated scf accuracy    <       0.00000002 Ry

     iteration # 15     ecut=    70.00 Ry     beta=0.70
     CG style diagonalization
     ethr =  1.80E-11,  avg # of iterations =  3.5

     negative rho (up, down):  1.231E-04 0.000E+00

     total cpu time spent up to now is     1185.4 secs

     End of self-consistent calculation

          k = 0.0000 0.0000 0.0000 ( 48761 PWs)   bands (ev):

   -61.1950 -61.0311 -61.0096 -61.0096 -35.4847 -35.4847 -35.4077 -35.3866
   -35.2441 -35.2440 -35.2436 -35.1968 -35.1968 -35.1570 -35.0753 -35.0753
   -14.9206 -13.8251 -13.0979 -13.0979 -13.0166 -12.9387 -12.9387 -10.3558
    -6.4400  -6.3124  -6.3124  -6.0850  -5.4565  -5.3080  -5.3080  -4.4804
    -4.4804  -4.1761  -3.3724  -3.2496  -3.2496  -2.6704  -2.6704  -2.4308
    -2.4134  -2.4134  -1.8738  -1.5870  -1.5870  -1.2186  -1.2186  -1.1030
    -0.9777  -0.6690  -0.6690  -0.5379   1.5527   1.5527   1.5908   1.9669
     2.0232   2.0232   2.6525   2.6526   3.1285   3.1362

          k = 0.0000 0.1155 0.0000 ( 48801 PWs)   bands (ev):

   -61.1949 -61.0306 -61.0101 -61.0096 -35.4817 -35.4788 -35.4056 -35.3836
   -35.2466 -35.2438 -35.2423 -35.2008 -35.1966 -35.1593 -35.0818 -35.0766
   -14.8848 -13.8085 -13.1468 -13.1014 -13.0312 -12.9578 -12.9379 -10.3745
    -6.3750  -6.2549  -6.2337  -6.0401  -5.4325  -5.2967  -5.2479  -4.4651
    -4.4629  -4.1574  -3.3897  -3.2814  -3.2337  -2.7672  -2.6351  -2.5214
    -2.3927  -2.3841  -1.9116  -1.6618  -1.5718  -1.4912  -1.2992  -1.0550
    -1.0056  -0.7027  -0.6859  -0.5413   1.5564   1.5712   1.6112   1.9223
     2.0045   2.0218   2.5096   2.6829   2.9470   3.0950

          k = 0.0000 0.2309 0.0000 ( 48770 PWs)   bands (ev):

   -61.1947 -61.0294 -61.0115 -61.0096 -35.4734 -35.4619 -35.4015 -35.3733
   -35.2539 -35.2434 -35.2387 -35.2115 -35.1965 -35.1651 -35.1002 -35.0801
   -14.7797 -13.7613 -13.2981 -13.1106 -13.0729 -12.9951 -12.9357 -10.4205
    -6.2017  -6.0934  -6.0126  -5.9094  -5.3890  -5.2636  -5.0529  -4.4298
    -4.4109  -4.1071  -3.4644  -3.3720  -3.1604  -3.0275  -2.7489  -2.5339
    -2.3322  -2.3232  -2.0381  -1.9924  -1.7680  -1.7515  -1.4001  -1.1386
    -1.0271  -0.7772  -0.7142  -0.5783   1.5656   1.5859   1.6446   1.7830
     2.0109   2.0349   2.1951   2.5404   2.6936   3.0015

          k = 0.0000 0.3464 0.0000 ( 48772 PWs)   bands (ev):

   -61.1945 -61.0276 -61.0135 -61.0096 -35.4625 -35.4372 -35.3983 -35.3571
   -35.2650 -35.2433 -35.2361 -35.2224 -35.1976 -35.1712 -35.1268 -35.0846
   -14.6116 -13.7016 -13.5111 -13.1610 -13.1218 -13.0157 -12.9330 -10.4720
    -5.9667  -5.8669  -5.7383  -5.6821  -5.3404  -5.2122  -4.7493  -4.3976
    -4.3218  -4.0347  -3.5791  -3.5213  -3.3711  -3.0494  -3.0267  -2.6260
    -2.4755  -2.3666  -2.2446  -2.1170  -1.9722  -1.7877  -1.4808  -1.1891
    -1.1811  -0.8439  -0.7802  -0.6381   1.5497   1.5545   1.6380   1.7031
     1.8749   2.0279   2.0726   2.2076   2.5356   2.7617

          k = 0.0000 0.4619 0.0000 ( 48764 PWs)   bands (ev):

   -61.1944 -61.0256 -61.0157 -61.0096 -35.4530 -35.4110 -35.3963 -35.3439
   -35.2732 -35.2483 -35.2437 -35.2165 -35.2003 -35.1744 -35.1552 -35.0883
   -14.3939 -13.8320 -13.5514 -13.2733 -13.1307 -13.0247 -12.9308 -10.5102
    -5.7467  -5.6564  -5.5217  -5.4150  -5.2853  -5.1541  -4.4336  -4.3167
    -4.1860  -3.9568  -3.8165  -3.6799  -3.6156  -3.3567  -3.1568  -2.8779
    -2.8402  -2.3475  -2.1805  -2.0223  -2.0120  -1.7202  -1.4617  -1.3946
    -1.2967  -0.9030  -0.8899  -0.7069   1.4532   1.5218   1.5542   1.6427
     1.8204   2.0369   2.1081   2.1317   2.3018   2.4613

          k = 0.0000-0.5774 0.0000 ( 48748 PWs)   bands (ev):

   -61.1943 -61.0246 -61.0168 -61.0096 -35.4492 -35.3976 -35.3956 -35.3419
   -35.2699 -35.2606 -35.2440 -35.2086 -35.2019 -35.1751 -35.1708 -35.0898
   -14.2040 -14.0331 -13.4885 -13.3501 -13.1341 -13.0274 -12.9300 -10.5240
    -5.6529  -5.5697  -5.4181  -5.3090  -5.2567  -5.1241  -4.2314  -4.2116
    -4.0743  -4.0094  -3.9814  -3.7157  -3.6748  -3.5493  -3.4288  -3.0614
    -2.6967  -2.4930  -2.1134  -1.9555  -1.9479  -1.6395  -1.5247  -1.5094
    -1.2914  -1.0080  -0.9070  -0.7394   1.3999   1.5027   1.5062   1.5871
     1.9184   2.0763   2.1224   2.1673   2.1745   2.2831

          k = 0.1000 0.1732 0.0000 ( 48791 PWs)   bands (ev):

   -61.1948 -61.0298 -61.0110 -61.0095 -35.4758 -35.4675 -35.4026 -35.3768
   -35.2518 -35.2433 -35.2398 -35.2085 -35.1959 -35.1636 -35.0939 -35.0793
   -14.8144 -13.7764 -13.2267 -13.1546 -13.0274 -12.9977 -12.9302 -10.4066
    -6.2590  -6.1334  -6.0917  -5.9525  -5.4262  -5.2223  -5.1441  -4.4365
    -4.4323  -4.1233  -3.4398  -3.3009  -3.2344  -2.9437  -2.6735  -2.5676
    -2.3719  -2.3192  -1.9794  -1.8779  -1.7810  -1.5859  -1.4239  -1.1315
    -0.9846  -0.7793  -0.6763  -0.5673   1.5526   1.5783   1.6257   1.8579
     1.9247   2.1006   2.2819   2.6578   2.7033   3.0279

          k = 0.1000 0.2887 0.0000 ( 48778 PWs)   bands (ev):

   -61.1946 -61.0283 -61.0128 -61.0095 -35.4656 -35.4473 -35.3993 -35.3628
   -35.2621 -35.2424 -35.2354 -35.2211 -35.1950 -35.1709 -35.1154 -35.0840
   -14.6776 -13.7180 -13.3997 -13.2260 -13.0746 -13.0099 -12.9152 -10.4539
    -6.0576  -5.9236  -5.8398  -5.7842  -5.4393  -5.0999  -4.9061  -4.3997
    -4.3724  -4.0672  -3.5234  -3.4111  -3.2451  -3.1811  -2.9151  -2.5371
    -2.4384  -2.3259  -2.1880  -2.0501  -1.9530  -1.7936  -1.5155  -1.1658
    -1.0423  -0.8632  -0.6841  -0.6139   1.5050   1.5411   1.5916   1.7807
     1.8987   1.9783   2.2151   2.3041   2.5903   2.8508

          k = 0.1000 0.4041 0.0000 ( 48753 PWs)   bands (ev):

   -61.1944 -61.0263 -61.0150 -61.0095 -35.4543 -35.4226 -35.3969 -35.3462
   -35.2741 -35.2424 -35.2403 -35.2236 -35.1961 -35.1769 -35.1412 -35.0889
   -14.4838 -13.7077 -13.5705 -13.2908 -13.1563 -13.0035 -12.9002 -10.4966
    -5.8137  -5.7098  -5.5980  -5.5358  -5.4099  -4.9837  -4.5711  -4.3719
    -4.2786  -3.9995  -3.6877  -3.6135  -3.5117  -3.2368  -3.0731  -3.0233
    -2.5378  -2.3819  -2.2666  -2.1213  -1.9622  -1.7814  -1.4911  -1.2776
    -1.1521  -0.9376  -0.7550  -0.6444   1.4231   1.4671   1.5212   1.6972
     1.7917   1.9236   2.0701   2.3400   2.3644   2.5413

          k = 0.1000 0.5196 0.0000 ( 48763 PWs)   bands (ev):

   -61.1943 -61.0245 -61.0169 -61.0095 -35.4467 -35.4025 -35.3957 -35.3378
   -35.2764 -35.2570 -35.2416 -35.2140 -35.2015 -35.1767 -35.1630 -35.0920
   -14.2553 -13.9382 -13.5040 -13.3717 -13.2065 -13.0015 -12.8912 -10.5209
    -5.6330  -5.6014  -5.4341  -5.3932  -5.2679  -4.9009  -4.3385  -4.1829
    -4.1490  -4.0703  -3.9087  -3.7592  -3.6692  -3.5320  -3.3791  -2.8994
    -2.8345  -2.5766  -2.2181  -2.0290  -1.8287  -1.7398  -1.4366  -1.3746
    -1.2611  -1.0094  -0.8548  -0.6616   1.3630   1.3996   1.4755   1.5395
     1.8715   1.9520   2.0684   2.1592   2.2903   2.3784

          k = 0.2000 0.3464 0.0000 ( 48776 PWs)   bands (ev):

   -61.1944 -61.0265 -61.0148 -61.0095 -35.4534 -35.4283 -35.3971 -35.3468
   -35.2754 -35.2406 -35.2354 -35.2293 -35.1911 -35.1812 -35.1343 -35.0904
   -14.5146 -13.6563 -13.5341 -13.3769 -13.1447 -13.0056 -12.8716 -10.4902
    -5.8395  -5.7137  -5.6253  -5.5943  -5.4708  -4.8161  -4.7024  -4.3565
    -4.3440  -4.0304  -3.6334  -3.5356  -3.4158  -3.3223  -3.1130  -3.0263
    -2.4486  -2.3350  -2.2893  -2.1271  -1.9813  -1.8565  -1.4959  -1.1968
    -1.0709  -0.9537  -0.6760  -0.6080   1.3633   1.4160   1.4611   1.7189
     1.8245   1.8706   2.0654   2.3591   2.4581   2.5623

          k = 0.2000 0.4619 0.0000 ( 48790 PWs)   bands (ev):

   -61.1943 -61.0244 -61.0171 -61.0094 -35.4414 -35.4112 -35.3957 -35.3307
   -35.2858 -35.2518 -35.2385 -35.2223 -35.1986 -35.1805 -35.1520 -35.0964
   -14.3034 -13.7692 -13.5812 -13.4417 -13.2313 -13.0076 -12.8359 -10.5159
    -5.6937  -5.5721  -5.4367  -5.3932  -5.3058  -4.6105  -4.3979  -4.3480
    -4.2712  -4.0353  -3.9460  -3.6764  -3.5781  -3.5144  -3.3412  -3.1684
    -2.7693  -2.4548  -2.3093  -2.1439  -1.9574  -1.6881  -1.3449  -1.2576
    -1.1548  -1.0188  -0.7454  -0.5508   1.2553   1.2871   1.3630   1.5200
     1.8352   1.8875   1.9812   2.1321   2.2796   2.3934

          k = 0.2000 0.5774 0.0000 ( 48766 PWs)   bands (ev):

   -61.1942 -61.0232 -61.0184 -61.0094 -35.4360 -35.4040 -35.3952 -35.3252
   -35.2843 -35.2637 -35.2379 -35.2158 -35.2081 -35.1735 -35.1629 -35.0988
   -14.1152 -13.9675 -13.5582 -13.4415 -13.2809 -13.0092 -12.8229 -10.5249
    -5.7022  -5.4586  -5.3288  -5.3003  -5.2017  -4.5228  -4.3638  -4.2506
    -4.2162  -4.1110  -3.9503  -3.8735  -3.7013  -3.6068  -3.3974  -3.1510
    -2.9459  -2.5505  -2.3412  -2.0891  -1.8946  -1.5986  -1.3709  -1.2341
    -1.1707  -1.0480  -0.8012  -0.5258   1.2219   1.2285   1.3374   1.4343
     1.8692   1.9022   1.9779   2.0237   2.1593   2.2804

          k = 0.3000 0.5196 0.0000 ( 48786 PWs)   bands (ev):

   -61.1942 -61.0222 -61.0194 -61.0093 -35.4280 -35.4096 -35.3951 -35.3137
   -35.2939 -35.2650 -35.2363 -35.2191 -35.2099 -35.1726 -35.1598 -35.1028
   -14.0900 -13.8698 -13.7095 -13.4104 -13.3136 -13.0172 -12.7955 -10.5254
    -5.7504  -5.3504  -5.3102  -5.1981  -5.1781  -4.5353  -4.3300  -4.2645
    -4.1687  -4.0992  -4.0818  -3.8009  -3.7573  -3.5525  -3.4455  -3.2989
    -3.1011  -2.4383  -2.2799  -2.1752  -2.0249  -1.5111  -1.3287  -1.2262
    -1.0849  -1.0499  -0.7575  -0.4534   1.1355   1.1693   1.2694   1.3846
     1.8460   1.8690   1.9126   2.0157   2.1135   2.2098

     the Fermi energy is    -0.5801 ev

!    total energy              =    -900.59693134 Ry
     Harris-Foulkes estimate   =    -900.59693134 Ry
     estimated scf accuracy    <          2.1E-09 Ry

     The total energy is the sum of the following terms:

     one-electron contribution =   -4135.91903407 Ry
     hartree contribution      =    2072.42708073 Ry
     xc contribution           =    -313.66825773 Ry
     ewald contribution        =    1476.56968525 Ry
     smearing contrib. (-TS)   =      -0.00640552 Ry

     convergence has been achieved in  15 iterations

     negative rho (up, down):  1.231E-04 0.000E+00

     Forces acting on atoms (Ry/au):

     atom    1 type  1   force =    -0.00000000    0.00756772   -0.00843767
     atom    2 type  1   force =     0.00655383   -0.00378386   -0.00843767
     atom    3 type  1   force =     0.00000000    0.00000000    0.00177992
     atom    4 type  1   force =    -0.00655383   -0.00378386   -0.00843767
     atom    5 type  2   force =     0.00123347    0.00071214    0.01403410
     atom    6 type  3   force =     0.00000000    0.00000000    0.02721329
     atom    7 type  2   force =    -0.00123347    0.00071214    0.01403410
     atom    8 type  2   force =     0.00000000   -0.00142428    0.01403410
     atom    9 type  2   force =     0.00235463    0.00135945   -0.01236204
     atom   10 type  2   force =     0.00000000    0.00000000   -0.00869638
     atom   11 type  2   force =    -0.00235463    0.00135945   -0.01236204
     atom   12 type  2   force =    -0.00000000   -0.00271890   -0.01236204

     Total force =     0.047774     Total SCF correction =     0.000099


     entering subroutine stress ...


     negative rho (up, down):  1.231E-04 0.000E+00
          total   stress  (Ry/bohr**3)                   (kbar)     P=    5.34
   0.00001886  -0.00000000   0.00000000          2.77     -0.00      0.00
  -0.00000000   0.00001886  -0.00000000         -0.00      2.77     -0.00
   0.00000000  -0.00000000   0.00007124          0.00     -0.00     10.48


     BFGS Geometry Optimization

     number of scf cycles    =   1
     number of bfgs steps    =   0

     energy   new            =    -900.5969313424 Ry

     new trust radius        =       0.0272132934 bohr
     new conv_thr            =       0.0000000100 Ry


ATOMIC_POSITIONS (angstrom)
Mo       0.000000000   1.879089663   3.179442976
Mo      -1.620402860   4.685709669   3.179442976
Mo       3.247742000   1.875085000   3.184849896
Mo       1.620402860   4.685709669   3.179442976
Se       1.624523722   0.937918849   4.834230524
As       0.000000000   3.750169000   4.841204655
Se       4.870960278   0.937918849   4.834230524
Se       3.247742000   3.749415301   4.834230524
Se       1.625117019   0.938261389   1.534470292
Se       0.000000000   3.750169000   1.536410074
Se       4.870366981   0.938261389   1.534470292
Se       3.247742000   3.748730221   1.534470292



     Writing output data file mose2_as.save
     Check: negative starting charge=   -0.000788
     NEW-OLD atomic charge density approx. for the potential
     Check: negative starting charge=   -0.000784

     negative rho (up, down):  1.886E-04 0.000E+00

     total cpu time spent up to now is     1225.4 secs

     per-process dynamical memory:   126.4 Mb

     Self-consistent Calculation

     iteration #  1     ecut=    70.00 Ry     beta=0.70
     CG style diagonalization
     c_bands:  1 eigenvalues not converged
     c_bands:  2 eigenvalues not converged
     c_bands:  1 eigenvalues not converged
     c_bands:  2 eigenvalues not converged
     c_bands:  1 eigenvalues not converged
     c_bands:  1 eigenvalues not converged
     c_bands:  1 eigenvalues not converged
     c_bands:  5 eigenvalues not converged
     c_bands:  5 eigenvalues not converged
     c_bands:  2 eigenvalues not converged
     c_bands:  2 eigenvalues not converged
     c_bands:  3 eigenvalues not converged
     c_bands:  2 eigenvalues not converged
     ethr =  1.00E-06,  avg # of iterations =  7.6

     negative rho (up, down):  1.315E-04 0.000E+00

     total cpu time spent up to now is     1389.7 secs

     total energy              =    -900.59870203 Ry
     Harris-Foulkes estimate   =    -900.59890417 Ry
     estimated scf accuracy    <       0.00027479 Ry

     iteration #  2     ecut=    70.00 Ry     beta=0.70
     CG style diagonalization
     ethr =  2.67E-07,  avg # of iterations =  4.4

     negative rho (up, down):  1.218E-04 0.000E+00

     total cpu time spent up to now is     1466.9 secs

     total energy              =    -900.59845501 Ry
     Harris-Foulkes estimate   =    -900.59933668 Ry
     estimated scf accuracy    <       0.00365185 Ry

     iteration #  3     ecut=    70.00 Ry     beta=0.70
     CG style diagonalization
     ethr =  2.67E-07,  avg # of iterations =  4.0

     negative rho (up, down):  1.204E-04 0.000E+00

     total cpu time spent up to now is     1534.0 secs

     total energy              =    -900.59885565 Ry
     Harris-Foulkes estimate   =    -900.59892776 Ry
     estimated scf accuracy    <       0.00023144 Ry

     iteration #  4     ecut=    70.00 Ry     beta=0.70
     CG style diagonalization
     ethr =  2.25E-07,  avg # of iterations =  3.4

     negative rho (up, down):  1.204E-04 0.000E+00

     total cpu time spent up to now is     1588.7 secs

     total energy              =    -900.59888111 Ry
     Harris-Foulkes estimate   =    -900.59892373 Ry
     estimated scf accuracy    <       0.00017911 Ry

     iteration #  5     ecut=    70.00 Ry     beta=0.70
     CG style diagonalization
     ethr =  1.74E-07,  avg # of iterations =  3.2

     negative rho (up, down):  1.202E-04 0.000E+00

     total cpu time spent up to now is     1640.4 secs

     total energy              =    -900.59890335 Ry
     Harris-Foulkes estimate   =    -900.59890719 Ry
     estimated scf accuracy    <       0.00001017 Ry

     iteration #  6     ecut=    70.00 Ry     beta=0.70
     CG style diagonalization
     ethr =  9.88E-09,  avg # of iterations =  3.9

     negative rho (up, down):  1.201E-04 0.000E+00

     total cpu time spent up to now is     1705.7 secs

     total energy              =    -900.59890559 Ry
     Harris-Foulkes estimate   =    -900.59890874 Ry
     estimated scf accuracy    <       0.00001376 Ry

     iteration #  7     ecut=    70.00 Ry     beta=0.70
     CG style diagonalization
     ethr =  9.88E-09,  avg # of iterations =  3.2

     negative rho (up, down):  1.201E-04 0.000E+00

     total cpu time spent up to now is     1757.4 secs

     total energy              =    -900.59890733 Ry
     Harris-Foulkes estimate   =    -900.59890748 Ry
     estimated scf accuracy    <       0.00000103 Ry

     iteration #  8     ecut=    70.00 Ry     beta=0.70
     CG style diagonalization
     ethr =  1.00E-09,  avg # of iterations =  4.0

     negative rho (up, down):  1.201E-04 0.000E+00

     total cpu time spent up to now is     1825.1 secs

     total energy              =    -900.59890777 Ry
     Harris-Foulkes estimate   =    -900.59890780 Ry
     estimated scf accuracy    <       0.00000006 Ry

     iteration #  9     ecut=    70.00 Ry     beta=0.70
     CG style diagonalization
     ethr =  5.35E-11,  avg # of iterations =  6.4

     negative rho (up, down):  1.201E-04 0.000E+00

     total cpu time spent up to now is     1938.4 secs

     total energy              =    -900.59890791 Ry
     Harris-Foulkes estimate   =    -900.59890792 Ry
     estimated scf accuracy    <       0.00000005 Ry

     iteration # 10     ecut=    70.00 Ry     beta=0.70
     CG style diagonalization
     ethr =  4.40E-11,  avg # of iterations =  3.4

     negative rho (up, down):  1.201E-04 0.000E+00

     total cpu time spent up to now is     1994.9 secs

     End of self-consistent calculation

          k = 0.0000 0.0000 0.0000 ( 48761 PWs)   bands (ev):

   -61.2066 -61.0331 -61.0117 -61.0117 -35.4890 -35.4890 -35.4136 -35.3909
   -35.2424 -35.2424 -35.2388 -35.1963 -35.1963 -35.1559 -35.0766 -35.0766
   -14.9075 -13.8273 -13.0833 -13.0833 -13.0249 -12.9285 -12.9284 -10.3273
    -6.4257  -6.3043  -6.3042  -6.0720  -5.4536  -5.3044  -5.3044  -4.4638
    -4.4638  -4.1729  -3.3371  -3.2303  -3.2303  -2.6412  -2.6412  -2.4486
    -2.4277  -2.4277  -1.8840  -1.5644  -1.5644  -1.2213  -1.2213  -1.0931
    -0.9927  -0.6436  -0.6436  -0.5606   1.5512   1.5512   1.6020   1.9593
     2.0186   2.0186   2.6460   2.6461   3.0978   3.0981

          k = 0.0000 0.1155 0.0000 ( 48801 PWs)   bands (ev):

   -61.2065 -61.0327 -61.0122 -61.0117 -35.4861 -35.4832 -35.4121 -35.3873
   -35.2451 -35.2421 -35.2375 -35.2000 -35.1961 -35.1582 -35.0830 -35.0779
   -14.8719 -13.8105 -13.1333 -13.0868 -13.0378 -12.9485 -12.9277 -10.3465
    -6.3602  -6.2468  -6.2246  -6.0270  -5.4283  -5.2916  -5.2434  -4.4490
    -4.4464  -4.1547  -3.3576  -3.2638  -3.2139  -2.7403  -2.6065  -2.5319
    -2.4063  -2.3981  -1.9192  -1.6417  -1.5607  -1.4832  -1.2982  -1.0636
    -1.0001  -0.6799  -0.6793  -0.5507   1.5537   1.5674   1.6218   1.9135
     1.9994   2.0170   2.5035   2.6766   2.9211   3.0633

          k = 0.0000 0.2309 0.0000 ( 48770 PWs)   bands (ev):

   -61.2064 -61.0315 -61.0135 -61.0117 -35.4781 -35.4667 -35.4093 -35.3758
   -35.2529 -35.2415 -35.2339 -35.2100 -35.1959 -35.1641 -35.1011 -35.0814
   -14.7670 -13.7627 -13.2871 -13.0960 -13.0721 -12.9919 -12.9257 -10.3937
    -6.1862  -6.0856  -6.0002  -5.8961  -5.3809  -5.2539  -5.0464  -4.4149
    -4.3946  -4.1059  -3.4413  -3.3581  -3.1383  -3.0045  -2.7465  -2.5072
    -2.3440  -2.3378  -2.0298  -1.9950  -1.7550  -1.7433  -1.3994  -1.1407
    -1.0142  -0.7632  -0.7171  -0.5814   1.5596   1.5768   1.6531   1.7695
     2.0069   2.0305   2.1901   2.5141   2.6874   2.9720

          k = 0.0000 0.3464 0.0000 ( 48772 PWs)   bands (ev):

   -61.2062 -61.0297 -61.0156 -61.0117 -35.4676 -35.4427 -35.4069 -35.3589
   -35.2643 -35.2410 -35.2320 -35.2197 -35.1964 -35.1708 -35.1271 -35.0858
   -14.5991 -13.7011 -13.5022 -13.1550 -13.1073 -13.0181 -12.9232 -10.4467
    -5.9501  -5.8595  -5.7206  -5.6682  -5.3269  -5.1959  -4.7414  -4.3841
    -4.3062  -4.0351  -3.5654  -3.5084  -3.3546  -3.0403  -3.0035  -2.6145
    -2.4757  -2.3470  -2.2538  -2.1283  -1.9432  -1.7961  -1.4850  -1.1920
    -1.1575  -0.8400  -0.7845  -0.6399   1.5345   1.5482   1.6189   1.7041
     1.8664   2.0269   2.0692   2.1848   2.5247   2.7352

          k = 0.0000 0.4619 0.0000 ( 48764 PWs)   bands (ev):

   -61.2060 -61.0277 -61.0178 -61.0117 -35.4585 -35.4178 -35.4053 -35.3452
   -35.2719 -35.2452 -35.2411 -35.2132 -35.1982 -35.1749 -35.1545 -35.0894
   -14.3814 -13.8240 -13.5497 -13.2670 -13.1163 -13.0283 -12.9213 -10.4858
    -5.7288  -5.6493  -5.5011  -5.3983  -5.2665  -5.1313  -4.4305  -4.2994
    -4.1727  -3.9540  -3.8024  -3.6730  -3.6090  -3.3494  -3.1443  -2.8698
    -2.8160  -2.3379  -2.1799  -2.0288  -1.9938  -1.7268  -1.4665  -1.3643
    -1.3038  -0.9123  -0.8904  -0.7039   1.4317   1.5160   1.5299   1.6336
     1.8143   2.0332   2.1056   2.1173   2.2933   2.4367

          k = 0.0000-0.5774 0.0000 ( 48748 PWs)   bands (ev):

   -61.2060 -61.0266 -61.0189 -61.0117 -35.4548 -35.4055 -35.4047 -35.3426
   -35.2677 -35.2581 -35.2413 -35.2057 -35.1993 -35.1760 -35.1694 -35.0909
   -14.1888 -14.0272 -13.4876 -13.3436 -13.1197 -13.0313 -12.9205 -10.5000
    -5.6342  -5.5626  -5.3943  -5.2899  -5.2396  -5.0984  -4.2232  -4.2001
    -4.0636  -4.0017  -3.9644  -3.7107  -3.6743  -3.5481  -3.4150  -3.0493
    -2.6683  -2.4838  -2.1213  -1.9670  -1.9238  -1.6469  -1.5088  -1.4912
    -1.3025  -1.0210  -0.9087  -0.7334   1.3757   1.4789   1.5005   1.5762
     1.9078   2.0799   2.1165   2.1547   2.1659   2.2591

          k = 0.1000 0.1732 0.0000 ( 48791 PWs)   bands (ev):

   -61.2064 -61.0319 -61.0131 -61.0116 -35.4804 -35.4722 -35.4101 -35.3796
   -35.2506 -35.2414 -35.2350 -35.2072 -35.1955 -35.1625 -35.0949 -35.0806
   -14.8016 -13.7780 -13.2120 -13.1497 -13.0239 -12.9889 -12.9221 -10.3794
    -6.2444  -6.1239  -6.0813  -5.9392  -5.4187  -5.2152  -5.1377  -4.4213
    -4.4158  -4.1216  -3.4164  -3.2792  -3.2176  -2.9197  -2.6740  -2.5403
    -2.3854  -2.3324  -1.9795  -1.8769  -1.7619  -1.5819  -1.4175  -1.1335
    -0.9785  -0.7660  -0.6724  -0.5719   1.5463   1.5708   1.6351   1.8483
     1.9193   2.0958   2.2763   2.6311   2.6976   2.9996

          k = 0.1000 0.2887 0.0000 ( 48778 PWs)   bands (ev):

   -61.2063 -61.0304 -61.0149 -61.0116 -35.4705 -35.4526 -35.4077 -35.3648
   -35.2614 -35.2402 -35.2307 -35.2190 -35.1943 -35.1700 -35.1160 -35.0852
   -14.6651 -13.7187 -13.3878 -13.2215 -13.0660 -13.0016 -12.9102 -10.4281
    -6.0439  -5.9122  -5.8251  -5.7709  -5.4259  -5.0888  -4.8976  -4.3857
    -4.3565  -4.0672  -3.5089  -3.3930  -3.2252  -3.1636  -2.9075  -2.5319
    -2.4144  -2.3367  -2.1950  -2.0439  -1.9374  -1.7963  -1.5136  -1.1662
    -1.0301  -0.8546  -0.6893  -0.6140   1.4919   1.5300   1.5937   1.7718
     1.8946   1.9758   2.2083   2.2783   2.5817   2.8235

          k = 0.1000 0.4041 0.0000 ( 48753 PWs)   bands (ev):

   -61.2061 -61.0284 -61.0171 -61.0116 -35.4596 -35.4289 -35.4058 -35.3477
   -35.2732 -35.2396 -35.2373 -35.2199 -35.1946 -35.1770 -35.1410 -35.0901
   -14.4714 -13.7023 -13.5653 -13.2854 -13.1492 -12.9931 -12.8970 -10.4718
    -5.8004  -5.6975  -5.5795  -5.5199  -5.3901  -4.9671  -4.5636  -4.3577
    -4.2641  -4.0003  -3.6696  -3.6027  -3.5042  -3.2277  -3.0613  -3.0059
    -2.5293  -2.3779  -2.2648  -2.0931  -1.9731  -1.7825  -1.4946  -1.2722
    -1.1418  -0.9328  -0.7687  -0.6394   1.4047   1.4581   1.5089   1.6880
     1.7834   1.9255   2.0519   2.3288   2.3546   2.5171

          k = 0.1000 0.5196 0.0000 ( 48763 PWs)   bands (ev):

   -61.2060 -61.0266 -61.0190 -61.0116 -35.4524 -35.4100 -35.4048 -35.3388
   -35.2748 -35.2543 -35.2388 -35.2108 -35.1991 -35.1772 -35.1621 -35.0931
   -14.2421 -13.9302 -13.5023 -13.3657 -13.2005 -12.9904 -12.8888 -10.4968
    -5.6225  -5.5827  -5.4139  -5.3721  -5.2486  -4.8801  -4.3320  -4.1704
    -4.1364  -4.0569  -3.9021  -3.7524  -3.6655  -3.5233  -3.3706  -2.8806
    -2.8220  -2.5655  -2.2265  -2.0000  -1.8418  -1.7348  -1.4290  -1.3737
    -1.2591  -1.0088  -0.8690  -0.6555   1.3406   1.3908   1.4511   1.5371
     1.8604   1.9544   2.0512   2.1523   2.2685   2.3669

          k = 0.2000 0.3464 0.0000 ( 48776 PWs)   bands (ev):

   -61.2061 -61.0286 -61.0169 -61.0116 -35.4587 -35.4344 -35.4060 -35.3483
   -35.2747 -35.2378 -35.2327 -35.2250 -35.1902 -35.1808 -35.1342 -35.0916
   -14.5023 -13.6561 -13.5194 -13.3765 -13.1387 -12.9912 -12.8705 -10.4652
    -5.8296  -5.6957  -5.6088  -5.5792  -5.4518  -4.8034  -4.6916  -4.3432
    -4.3291  -4.0315  -3.6152  -3.5247  -3.3975  -3.3139  -3.1083  -3.0126
    -2.4464  -2.3352  -2.2597  -2.1277  -1.9665  -1.8669  -1.5014  -1.1963
    -1.0600  -0.9451  -0.6941  -0.5986   1.3448   1.4041   1.4601   1.7101
     1.8146   1.8697   2.0463   2.3496   2.4468   2.5393

          k = 0.2000 0.4619 0.0000 ( 48790 PWs)   bands (ev):

   -61.2060 -61.0265 -61.0191 -61.0115 -35.4471 -35.4183 -35.4048 -35.3319
   -35.2845 -35.2491 -35.2356 -35.2185 -35.1965 -35.1806 -35.1514 -35.0975
   -14.2909 -13.7590 -13.5768 -13.4404 -13.2266 -12.9925 -12.8355 -10.4916
    -5.6821  -5.5509  -5.4162  -5.3755  -5.2864  -4.5946  -4.3926  -4.3325
    -4.2568  -4.0315  -3.9302  -3.6695  -3.5717  -3.5015  -3.3316  -3.1577
    -2.7585  -2.4483  -2.3116  -2.1231  -1.9424  -1.7032  -1.3458  -1.2601
    -1.1438  -1.0103  -0.7632  -0.5455   1.2351   1.2809   1.3488   1.5138
     1.8236   1.8793   1.9670   2.1269   2.2589   2.3646

          k = 0.2000 0.5774 0.0000 ( 48766 PWs)   bands (ev):

   -61.2059 -61.0252 -61.0205 -61.0115 -35.4420 -35.4117 -35.4044 -35.3260
   -35.2830 -35.2613 -35.2347 -35.2128 -35.2053 -35.1736 -35.1619 -35.0999
   -14.1002 -13.9600 -13.5532 -13.4399 -13.2771 -12.9942 -12.8226 -10.5009
    -5.6859  -5.4380  -5.3041  -5.2849  -5.1828  -4.5050  -4.3504  -4.2421
    -4.2101  -4.1024  -3.9333  -3.8633  -3.6942  -3.5978  -3.3929  -3.1369
    -2.9377  -2.5388  -2.3493  -2.0664  -1.8813  -1.6157  -1.3632  -1.2378
    -1.1625  -1.0403  -0.8204  -0.5217   1.2034   1.2221   1.3139   1.4337
     1.8553   1.8926   1.9648   2.0214   2.1400   2.2557

          k = 0.3000 0.5196 0.0000 ( 48786 PWs)   bands (ev):

   -61.2059 -61.0243 -61.0215 -61.0115 -35.4342 -35.4172 -35.4043 -35.3150
   -35.2924 -35.2627 -35.2330 -35.2157 -35.2072 -35.1725 -35.1589 -35.1039
   -14.0765 -13.8549 -13.7106 -13.4085 -13.3103 -13.0019 -12.7953 -10.5014
    -5.7325  -5.3290  -5.2832  -5.1850  -5.1594  -4.5232  -4.3261  -4.2584
    -4.1555  -4.0789  -4.0673  -3.7924  -3.7403  -3.5448  -3.4382  -3.2914
    -3.0965  -2.4439  -2.2625  -2.1670  -2.0090  -1.5279  -1.3200  -1.2257
    -1.0776  -1.0422  -0.7773  -0.4509   1.1313   1.1503   1.2494   1.3828
     1.8335   1.8553   1.8992   2.0152   2.0933   2.1865

     the Fermi energy is    -0.5792 ev

!    total energy              =    -900.59890791 Ry
     Harris-Foulkes estimate   =    -900.59890792 Ry
     estimated scf accuracy    <          2.8E-09 Ry

     The total energy is the sum of the following terms:

     one-electron contribution =   -4128.50938239 Ry
     hartree contribution      =    2068.71235509 Ry
     xc contribution           =    -313.61505753 Ry
     ewald contribution        =    1472.81954651 Ry
     smearing contrib. (-TS)   =      -0.00636959 Ry

     convergence has been achieved in  10 iterations

     negative rho (up, down):  1.201E-04 0.000E+00

     Forces acting on atoms (Ry/au):

     atom    1 type  1   force =    -0.00000000    0.00599859   -0.00454300
     atom    2 type  1   force =     0.00519493   -0.00299929   -0.00454300
     atom    3 type  1   force =     0.00000000    0.00000000    0.00200129
     atom    4 type  1   force =    -0.00519493   -0.00299929   -0.00454300
     atom    5 type  2   force =     0.00015832    0.00009141    0.00768082
     atom    6 type  3   force =     0.00000000    0.00000000    0.02442000
     atom    7 type  2   force =    -0.00015832    0.00009141    0.00768082
     atom    8 type  2   force =     0.00000000   -0.00018282    0.00768082
     atom    9 type  2   force =     0.00171257    0.00098876   -0.00881585
     atom   10 type  2   force =     0.00000000    0.00000000   -0.00938722
     atom   11 type  2   force =    -0.00171257    0.00098876   -0.00881585
     atom   12 type  2   force =     0.00000000   -0.00197751   -0.00881585

     Total force =     0.035781     Total SCF correction =     0.000205


     entering subroutine stress ...


     negative rho (up, down):  1.201E-04 0.000E+00
          total   stress  (Ry/bohr**3)                   (kbar)     P=    3.08
   0.00000548  -0.00000000   0.00000000          0.81     -0.00      0.00
   0.00000000   0.00000548  -0.00000000          0.00      0.81     -0.00
   0.00000000  -0.00000000   0.00005185          0.00     -0.00      7.63


     number of scf cycles    =   2
     number of bfgs steps    =   1

     energy   old            =    -900.5969313424 Ry
     energy   new            =    -900.5989079139 Ry

     CASE: energy  _new < energy  _old

     new trust radius        =       0.0299346228 bohr
     new conv_thr            =       0.0000000020 Ry


ATOMIC_POSITIONS (angstrom)
Mo      -0.000000000   1.883032064   3.176300150
Mo      -1.616988641   4.683738468   3.176300150
Mo       3.247742000   1.875085000   3.186121954
Mo       1.616988641   4.683738468   3.176300150
Se       1.624687773   0.938013564   4.839530649
As       0.000000000   3.750169000   4.857045375
Se       4.870796227   0.938013564   4.839530649
Se       3.247742000   3.749225872   4.839530649
Se       1.626253823   0.938917724   1.528604356
Se       0.000000000   3.750169000   1.530423204
Se       4.869230177   0.938917724   1.528604356
Se       3.247742000   3.747417552   1.528604356



     Writing output data file mose2_as.save
     Check: negative starting charge=   -0.000784
     NEW-OLD atomic charge density approx. for the potential
     Check: negative starting charge=   -0.000780

     negative rho (up, down):  1.774E-04 0.000E+00

     total cpu time spent up to now is     2031.5 secs

     per-process dynamical memory:   126.4 Mb

     Self-consistent Calculation

     iteration #  1     ecut=    70.00 Ry     beta=0.70
     CG style diagonalization
     c_bands:  1 eigenvalues not converged
     c_bands:  1 eigenvalues not converged
     c_bands:  1 eigenvalues not converged
     c_bands:  1 eigenvalues not converged
     c_bands:  2 eigenvalues not converged
     c_bands:  2 eigenvalues not converged
     c_bands:  2 eigenvalues not converged
     c_bands:  2 eigenvalues not converged
     ethr =  1.00E-06,  avg # of iterations =  6.9

     negative rho (up, down):  1.275E-04 0.000E+00

     total cpu time spent up to now is     2176.1 secs

     total energy              =    -900.60013373 Ry
     Harris-Foulkes estimate   =    -900.60028085 Ry
     estimated scf accuracy    <       0.00020387 Ry

     iteration #  2     ecut=    70.00 Ry     beta=0.70
     CG style diagonalization
     ethr =  1.98E-07,  avg # of iterations =  4.4

     negative rho (up, down):  1.200E-04 0.000E+00

     total cpu time spent up to now is     2256.0 secs

     total energy              =    -900.59997450 Ry
     Harris-Foulkes estimate   =    -900.60059434 Ry
     estimated scf accuracy    <       0.00251640 Ry

     iteration #  3     ecut=    70.00 Ry     beta=0.70
     CG style diagonalization
     ethr =  1.98E-07,  avg # of iterations =  4.0

     negative rho (up, down):  1.190E-04 0.000E+00

     total cpu time spent up to now is     2323.7 secs

     total energy              =    -900.60025769 Ry
     Harris-Foulkes estimate   =    -900.60030140 Ry
     estimated scf accuracy    <       0.00012145 Ry

     iteration #  4     ecut=    70.00 Ry     beta=0.70
     CG style diagonalization
     ethr =  1.18E-07,  avg # of iterations =  3.5

     negative rho (up, down):  1.188E-04 0.000E+00

     total cpu time spent up to now is     2381.0 secs

     total energy              =    -900.60026802 Ry
     Harris-Foulkes estimate   =    -900.60030721 Ry
     estimated scf accuracy    <       0.00017006 Ry

     iteration #  5     ecut=    70.00 Ry     beta=0.70
     CG style diagonalization
     ethr =  1.18E-07,  avg # of iterations =  3.2

     negative rho (up, down):  1.188E-04 0.000E+00

     total cpu time spent up to now is     2433.8 secs

     total energy              =    -900.60028739 Ry
     Harris-Foulkes estimate   =    -900.60029051 Ry
     estimated scf accuracy    <       0.00000833 Ry

     iteration #  6     ecut=    70.00 Ry     beta=0.70
     CG style diagonalization
     ethr =  8.09E-09,  avg # of iterations =  3.7

     negative rho (up, down):  1.187E-04 0.000E+00

     total cpu time spent up to now is     2496.6 secs

     total energy              =    -900.60028909 Ry
     Harris-Foulkes estimate   =    -900.60029182 Ry
     estimated scf accuracy    <       0.00001224 Ry

     iteration #  7     ecut=    70.00 Ry     beta=0.70
     CG style diagonalization
     ethr =  8.09E-09,  avg # of iterations =  3.2

     negative rho (up, down):  1.187E-04 0.000E+00

     total cpu time spent up to now is     2549.0 secs

     total energy              =    -900.60029050 Ry
     Harris-Foulkes estimate   =    -900.60029074 Ry
     estimated scf accuracy    <       0.00000101 Ry

     iteration #  8     ecut=    70.00 Ry     beta=0.70
     CG style diagonalization
     ethr =  9.84E-10,  avg # of iterations =  4.0

     negative rho (up, down):  1.187E-04 0.000E+00

     total cpu time spent up to now is     2616.1 secs

     total energy              =    -900.60029088 Ry
     Harris-Foulkes estimate   =    -900.60029090 Ry
     estimated scf accuracy    <       0.00000005 Ry

     iteration #  9     ecut=    70.00 Ry     beta=0.70
     CG style diagonalization
     ethr =  4.68E-11,  avg # of iterations =  6.6

     negative rho (up, down):  1.187E-04 0.000E+00

     total cpu time spent up to now is     2733.8 secs

     total energy              =    -900.60029101 Ry
     Harris-Foulkes estimate   =    -900.60029102 Ry
     estimated scf accuracy    <       0.00000005 Ry

     iteration # 10     ecut=    70.00 Ry     beta=0.70
     CG style diagonalization
     ethr =  4.49E-11,  avg # of iterations =  3.3

     negative rho (up, down):  1.187E-04 0.000E+00

     total cpu time spent up to now is     2788.9 secs

     total energy              =    -900.60029102 Ry
     Harris-Foulkes estimate   =    -900.60029102 Ry
     estimated scf accuracy    <          3.6E-09 Ry

     iteration # 11     ecut=    70.00 Ry     beta=0.70
     CG style diagonalization
     ethr =  3.46E-12,  avg # of iterations =  6.0

     negative rho (up, down):  1.187E-04 0.000E+00

     total cpu time spent up to now is     2895.9 secs

     End of self-consistent calculation

          k = 0.0000 0.0000 0.0000 ( 48761 PWs)   bands (ev):

   -61.2155 -61.0339 -61.0125 -61.0124 -35.4917 -35.4917 -35.4189 -35.3924
   -35.2403 -35.2403 -35.2334 -35.1943 -35.1943 -35.1538 -35.0762 -35.0762
   -14.8959 -13.8292 -13.0717 -13.0716 -13.0281 -12.9193 -12.9192 -10.2998
    -6.4144  -6.2952  -6.2952  -6.0601  -5.4514  -5.3014  -5.3014  -4.4499
    -4.4499  -4.1652  -3.3069  -3.2113  -3.2112  -2.6136  -2.6136  -2.4625
    -2.4382  -2.4382  -1.8985  -1.5432  -1.5432  -1.2211  -1.2210  -1.0858
    -1.0036  -0.6190  -0.6190  -0.5838   1.5505   1.5505   1.6145   1.9538
     2.0152   2.0152   2.6384   2.6384   3.0739   3.0746

          k = 0.0000 0.1155 0.0000 ( 48801 PWs)   bands (ev):

   -61.2155 -61.0335 -61.0129 -61.0124 -35.4888 -35.4860 -35.4179 -35.3883
   -35.2431 -35.2399 -35.2322 -35.1978 -35.1941 -35.1561 -35.0825 -35.0775
   -14.8604 -13.8123 -13.1226 -13.0752 -13.0397 -12.9400 -12.9186 -10.3195
    -6.3485  -6.2378  -6.2147  -6.0149  -5.4249  -5.2872  -5.2395  -4.4354
    -4.4324  -4.1477  -3.3303  -3.2462  -3.1942  -2.7148  -2.5796  -2.5395
    -2.4161  -2.4084  -1.9307  -1.6233  -1.5496  -1.4743  -1.2947  -1.0703
    -0.9955  -0.6785  -0.6575  -0.5532   1.5521   1.5645   1.6336   1.9070
     1.9955   2.0136   2.4959   2.6689   2.9016   3.0416

          k = 0.0000 0.2309 0.0000 ( 48770 PWs)   bands (ev):

   -61.2153 -61.0323 -61.0143 -61.0124 -35.4811 -35.4698 -35.4159 -35.3763
   -35.2512 -35.2391 -35.2286 -35.2073 -35.1938 -35.1622 -35.1003 -35.0809
   -14.7557 -13.7638 -13.2780 -13.0844 -13.0698 -12.9870 -12.9168 -10.3679
    -6.1736  -6.0768  -5.9875  -5.8836  -5.3740  -5.2456  -5.0407  -4.4022
    -4.3806  -4.1008  -3.4216  -3.3444  -3.1170  -2.9819  -2.7433  -2.4824
    -2.3523  -2.3493  -2.0208  -2.0001  -1.7570  -1.7202  -1.3963  -1.1436
    -1.0033  -0.7487  -0.7237  -0.5776   1.5553   1.5684   1.6624   1.7586
     2.0037   2.0282   2.1830   2.4948   2.6790   2.9498

          k = 0.0000 0.3464 0.0000 ( 48772 PWs)   bands (ev):

   -61.2151 -61.0304 -61.0163 -61.0124 -35.4709 -35.4466 -35.4139 -35.3590
   -35.2627 -35.2383 -35.2274 -35.2159 -35.1940 -35.1693 -35.1257 -35.0852
   -14.5882 -13.7007 -13.4943 -13.1496 -13.0956 -13.0170 -12.9146 -10.4222
    -5.9361  -5.8510  -5.7051  -5.6538  -5.3148  -5.1819  -4.7342  -4.3725
    -4.2927  -4.0326  -3.5537  -3.4972  -3.3362  -3.0311  -2.9819  -2.6042
    -2.4761  -2.3280  -2.2587  -2.1359  -1.9167  -1.8046  -1.4858  -1.1969
    -1.1356  -0.8356  -0.7917  -0.6350   1.5216   1.5436   1.6013   1.7069
     1.8562   2.0263   2.0686   2.1681   2.5145   2.7135

          k = 0.0000 0.4619 0.0000 ( 48764 PWs)   bands (ev):

   -61.2150 -61.0284 -61.0185 -61.0124 -35.4621 -35.4227 -35.4126 -35.3451
   -35.2698 -35.2415 -35.2381 -35.2089 -35.1951 -35.1741 -35.1522 -35.0888
   -14.3705 -13.8166 -13.5482 -13.2617 -13.1046 -13.0282 -12.9127 -10.4624
    -5.7132  -5.6411  -5.4834  -5.3819  -5.2487  -5.1117  -4.4262  -4.2853
    -4.1605  -3.9506  -3.7884  -3.6676  -3.6017  -3.3409  -3.1328  -2.8616
    -2.7940  -2.3259  -2.1797  -2.0416  -1.9669  -1.7331  -1.4681  -1.3353
    -1.3125  -0.9227  -0.8908  -0.6964   1.4148   1.5051   1.5120   1.6249
     1.8110   2.0293   2.1050   2.1071   2.2858   2.4170

          k = 0.0000-0.5774 0.0000 ( 48748 PWs)   bands (ev):

   -61.2149 -61.0274 -61.0196 -61.0124 -35.4586 -35.4122 -35.4110 -35.3420
   -35.2652 -35.2547 -35.2381 -35.2018 -35.1959 -35.1756 -35.1664 -35.0902
   -14.1764 -14.0209 -13.4866 -13.3383 -13.1080 -13.0314 -12.9120 -10.4769
    -5.6177  -5.5542  -5.3743  -5.2721  -5.2222  -5.0764  -4.2160  -4.1871
    -4.0532  -3.9974  -3.9480  -3.7074  -3.6721  -3.5449  -3.4023  -3.0366
    -2.6442  -2.4711  -2.1262  -1.9816  -1.8968  -1.6513  -1.5126  -1.4584
    -1.3087  -1.0356  -0.9103  -0.7242   1.3565   1.4542   1.4965   1.5665
     1.9019   2.0829   2.1085   2.1379   2.1683   2.2410

          k = 0.1000 0.1732 0.0000 ( 48791 PWs)   bands (ev):

   -61.2154 -61.0327 -61.0139 -61.0124 -35.4833 -35.4753 -35.4164 -35.3802
   -35.2489 -35.2390 -35.2297 -35.2046 -35.1936 -35.1605 -35.0942 -35.0802
   -14.7902 -13.7794 -13.2001 -13.1452 -13.0188 -12.9809 -12.9141 -10.3532
    -6.2327  -6.1139  -6.0701  -5.9268  -5.4123  -5.2094  -5.1320  -4.4083
    -4.4018  -4.1159  -3.3966  -3.2585  -3.2009  -2.8964  -2.6731  -2.5148
    -2.3956  -2.3422  -1.9828  -1.8754  -1.7433  -1.5777  -1.4084  -1.1363
    -0.9730  -0.7561  -0.6698  -0.5691   1.5415   1.5642   1.6453   1.8412
     1.9152   2.0924   2.2690   2.6114   2.6898   2.9784

          k = 0.1000 0.2887 0.0000 ( 48778 PWs)   bands (ev):

   -61.2152 -61.0311 -61.0156 -61.0124 -35.4737 -35.4561 -35.4146 -35.3650
   -35.2599 -35.2375 -35.2255 -35.2158 -35.1924 -35.1682 -35.1148 -35.0847
   -14.6540 -13.7192 -13.3780 -13.2164 -13.0587 -12.9941 -12.9040 -10.4031
    -6.0326  -5.9008  -5.8108  -5.7579  -5.4142  -5.0794  -4.8900  -4.3736
    -4.3429  -4.0638  -3.4967  -3.3768  -3.2048  -3.1463  -2.8995  -2.5276
    -2.3922  -2.3437  -2.1999  -2.0381  -1.9233  -1.7983  -1.5087  -1.1683
    -1.0194  -0.8466  -0.6974  -0.6061   1.4813   1.5187   1.5974   1.7654
     1.8918   1.9713   2.2041   2.2583   2.5728   2.8015

          k = 0.1000 0.4041 0.0000 ( 48753 PWs)   bands (ev):

   -61.2150 -61.0291 -61.0178 -61.0124 -35.4632 -35.4332 -35.4130 -35.3476
   -35.2715 -35.2364 -35.2336 -35.2154 -35.1920 -35.1757 -35.1392 -35.0895
   -14.4606 -13.6975 -13.5606 -13.2798 -13.1430 -12.9844 -12.8921 -10.4480
    -5.7891  -5.6850  -5.5635  -5.5040  -5.3718  -4.9527  -4.5564  -4.3455
    -4.2513  -3.9988  -3.6539  -3.5931  -3.4950  -3.2183  -3.0507  -2.9886
    -2.5216  -2.3730  -2.2600  -2.0682  -1.9807  -1.7834  -1.4950  -1.2695
    -1.1313  -0.9281  -0.7817  -0.6307   1.3895   1.4467   1.4999   1.6801
     1.7773   1.9272   2.0389   2.3187   2.3485   2.4979

          k = 0.1000 0.5196 0.0000 ( 48763 PWs)   bands (ev):

   -61.2149 -61.0274 -61.0197 -61.0124 -35.4562 -35.4154 -35.4121 -35.3384
   -35.2724 -35.2508 -35.2355 -35.2068 -35.1957 -35.1763 -35.1596 -35.0925
   -14.2309 -13.9225 -13.5007 -13.3602 -13.1949 -12.9812 -12.8844 -10.4736
    -5.6128  -5.5651  -5.3966  -5.3533  -5.2289  -4.8620  -4.3250  -4.1596
    -4.1253  -4.0444  -3.8951  -3.7459  -3.6625  -3.5149  -3.3607  -2.8643
    -2.8097  -2.5520  -2.2315  -1.9755  -1.8522  -1.7288  -1.4258  -1.3703
    -1.2528  -1.0095  -0.8815  -0.6471   1.3226   1.3812   1.4277   1.5373
     1.8528   1.9557   2.0377   2.1474   2.2514   2.3572

          k = 0.2000 0.3464 0.0000 ( 48776 PWs)   bands (ev):

   -61.2150 -61.0293 -61.0176 -61.0124 -35.4623 -35.4386 -35.4132 -35.3483
   -35.2731 -35.2347 -35.2293 -35.2199 -35.1881 -35.1791 -35.1326 -35.0910
   -14.4914 -13.6557 -13.5074 -13.3743 -13.1332 -12.9800 -12.8669 -10.4413
    -5.8208  -5.6795  -5.5945  -5.5630  -5.4343  -4.7928  -4.6814  -4.3317
    -4.3160  -4.0300  -3.6005  -3.5138  -3.3794  -3.3049  -3.1030  -2.9992
    -2.4439  -2.3297  -2.2359  -2.1287  -1.9527  -1.8730  -1.5046  -1.1969
    -1.0511  -0.9361  -0.7093  -0.5876   1.3299   1.3896   1.4623   1.7015
     1.8074   1.8692   2.0325   2.3407   2.4378   2.5211

          k = 0.2000 0.4619 0.0000 ( 48790 PWs)   bands (ev):

   -61.2149 -61.0273 -61.0199 -61.0123 -35.4510 -35.4234 -35.4122 -35.3318
   -35.2824 -35.2459 -35.2321 -35.2140 -35.1935 -35.1794 -35.1493 -35.0968
   -14.2802 -13.7502 -13.5724 -13.4382 -13.2223 -12.9811 -12.8324 -10.4683
    -5.6708  -5.5331  -5.3987  -5.3582  -5.2664  -4.5808  -4.3866  -4.3189
    -4.2445  -4.0274  -3.9149  -3.6634  -3.5657  -3.4896  -3.3214  -3.1466
    -2.7457  -2.4434  -2.3110  -2.1058  -1.9268  -1.7145  -1.3486  -1.2594
    -1.1343  -1.0007  -0.7795  -0.5383   1.2183   1.2712   1.3377   1.5107
     1.8147   1.8725   1.9563   2.1229   2.2429   2.3394

          k = 0.2000 0.5774 0.0000 ( 48766 PWs)   bands (ev):

   -61.2149 -61.0260 -61.0212 -61.0123 -35.4461 -35.4172 -35.4118 -35.3256
   -35.2808 -35.2581 -35.2311 -35.2088 -35.2017 -35.1724 -35.1595 -35.0992
   -14.0879 -13.9527 -13.5477 -13.4383 -13.2735 -12.9828 -12.8196 -10.4778
    -5.6708  -5.4203  -5.2840  -5.2694  -5.1630  -4.4894  -4.3391  -4.2343
    -4.2003  -4.0957  -3.9189  -3.8541  -3.6878  -3.5893  -3.3868  -3.1249
    -2.9256  -2.5281  -2.3544  -2.0472  -1.8674  -1.6290  -1.3604  -1.2382
    -1.1512  -1.0324  -0.8394  -0.5159   1.1855   1.2165   1.2922   1.4366
     1.8447   1.8840   1.9532   2.0206   2.1238   2.2343

          k = 0.3000 0.5196 0.0000 ( 48786 PWs)   bands (ev):

   -61.2149 -61.0251 -61.0221 -61.0122 -35.4384 -35.4225 -35.4117 -35.3151
   -35.2899 -35.2598 -35.2292 -35.2115 -35.2036 -35.1711 -35.1567 -35.1032
   -14.0654 -13.8425 -13.7090 -13.4066 -13.3071 -12.9904 -12.7923 -10.4784
    -5.7159  -5.3111  -5.2599  -5.1728  -5.1389  -4.5130  -4.3200  -4.2509
    -4.1442  -4.0615  -4.0554  -3.7853  -3.7248  -3.5387  -3.4298  -3.2844
    -3.0869  -2.4484  -2.2465  -2.1591  -1.9927  -1.5409  -1.3163  -1.2222
    -1.0692  -1.0314  -0.7975  -0.4467   1.1197   1.1392   1.2314   1.3845
     1.8233   1.8442   1.8881   2.0140   2.0779   2.1671

     the Fermi energy is    -0.5748 ev

!    total energy              =    -900.60029102 Ry
     Harris-Foulkes estimate   =    -900.60029102 Ry
     estimated scf accuracy    <          1.2E-09 Ry

     The total energy is the sum of the following terms:

     one-electron contribution =   -4121.82904206 Ry
     hartree contribution      =    2065.36330639 Ry
     xc contribution           =    -313.56699835 Ry
     ewald contribution        =    1469.43870783 Ry
     smearing contrib. (-TS)   =      -0.00626483 Ry

     convergence has been achieved in  11 iterations

     negative rho (up, down):  1.187E-04 0.000E+00

     Forces acting on atoms (Ry/au):

     atom    1 type  1   force =     0.00000000    0.00515220   -0.00251944
     atom    2 type  1   force =     0.00446194   -0.00257610   -0.00251944
     atom    3 type  1   force =     0.00000000    0.00000000    0.00132411
     atom    4 type  1   force =    -0.00446194   -0.00257610   -0.00251944
     atom    5 type  2   force =    -0.00045449   -0.00026240    0.00311655
     atom    6 type  3   force =     0.00000000    0.00000000    0.02112585
     atom    7 type  2   force =     0.00045449   -0.00026240    0.00311655
     atom    8 type  2   force =    -0.00000000    0.00052480    0.00311655
     atom    9 type  2   force =     0.00100893    0.00058251   -0.00520451
     atom   10 type  2   force =     0.00000000    0.00000000   -0.00862776
     atom   11 type  2   force =    -0.00100893    0.00058251   -0.00520451
     atom   12 type  2   force =     0.00000000   -0.00116501   -0.00520451

     Total force =     0.027138     Total SCF correction =     0.000176


     entering subroutine stress ...


     negative rho (up, down):  1.187E-04 0.000E+00
          total   stress  (Ry/bohr**3)                   (kbar)     P=    1.00
  -0.00000669   0.00000000   0.00000000         -0.98      0.00      0.00
   0.00000000  -0.00000669   0.00000000          0.00     -0.98      0.00
   0.00000000   0.00000000   0.00003378          0.00      0.00      4.97


     number of scf cycles    =   3
     number of bfgs steps    =   2

     energy   old            =    -900.5989079139 Ry
     energy   new            =    -900.6002910236 Ry

     CASE: energy  _new < energy  _old

     new trust radius        =       0.0449019342 bohr
     new conv_thr            =       0.0000000014 Ry


ATOMIC_POSITIONS (angstrom)
Mo      -0.000000000   1.888956851   3.172642713
Mo      -1.611857625   4.680776074   3.172642713
Mo       3.247742000   1.875085000   3.187654918
Mo       1.611857625   4.680776074   3.172642713
Se       1.624473173   0.937889665   4.844691933
As       0.000000000   3.750169000   4.880806455
Se       4.871010827   0.937889665   4.844691933
Se       3.247742000   3.749473671   4.844691933
Se       1.627571306   0.939678373   1.521780104
Se       0.000000000   3.750169000   1.521090376
Se       4.867912694   0.939678373   1.521780104
Se       3.247742000   3.745896255   1.521780104



     Writing output data file mose2_as.save
     Check: negative starting charge=   -0.000780
     NEW-OLD atomic charge density approx. for the potential
     Check: negative starting charge=   -0.000775

     negative rho (up, down):  2.178E-04 0.000E+00

     total cpu time spent up to now is     2932.3 secs

     per-process dynamical memory:   126.4 Mb

     Self-consistent Calculation

     iteration #  1     ecut=    70.00 Ry     beta=0.70
     CG style diagonalization
     c_bands:  1 eigenvalues not converged
     c_bands:  3 eigenvalues not converged
     c_bands:  1 eigenvalues not converged
     c_bands:  4 eigenvalues not converged
     c_bands:  3 eigenvalues not converged
     c_bands:  5 eigenvalues not converged
     c_bands:  2 eigenvalues not converged
     c_bands:  1 eigenvalues not converged
     c_bands:  4 eigenvalues not converged
     c_bands:  1 eigenvalues not converged
     ethr =  1.00E-06,  avg # of iterations =  8.2

     negative rho (up, down):  1.343E-04 0.000E+00

     total cpu time spent up to now is     3096.9 secs

     total energy              =    -900.60140218 Ry
     Harris-Foulkes estimate   =    -900.60158494 Ry
     estimated scf accuracy    <       0.00026821 Ry

     iteration #  2     ecut=    70.00 Ry     beta=0.70
     CG style diagonalization
     c_bands:  1 eigenvalues not converged
     ethr =  2.60E-07,  avg # of iterations =  4.4

     negative rho (up, down):  1.217E-04 0.000E+00

     total cpu time spent up to now is     3172.7 secs

     total energy              =    -900.60125163 Ry
     Harris-Foulkes estimate   =    -900.60189105 Ry
     estimated scf accuracy    <       0.00235940 Ry

     iteration #  3     ecut=    70.00 Ry     beta=0.70
     CG style diagonalization
     c_bands:  1 eigenvalues not converged
     ethr =  2.60E-07,  avg # of iterations =  3.9

     negative rho (up, down):  1.198E-04 0.000E+00

     total cpu time spent up to now is     3239.4 secs

     total energy              =    -900.60155561 Ry
     Harris-Foulkes estimate   =    -900.60159869 Ry
     estimated scf accuracy    <       0.00011990 Ry

     iteration #  4     ecut=    70.00 Ry     beta=0.70
     CG style diagonalization
     ethr =  1.16E-07,  avg # of iterations =  3.5

     negative rho (up, down):  1.194E-04 0.000E+00

     total cpu time spent up to now is     3297.1 secs

     total energy              =    -900.60156244 Ry
     Harris-Foulkes estimate   =    -900.60160176 Ry
     estimated scf accuracy    <       0.00014801 Ry

     iteration #  5     ecut=    70.00 Ry     beta=0.70
     CG style diagonalization
     ethr =  1.16E-07,  avg # of iterations =  3.2

     negative rho (up, down):  1.192E-04 0.000E+00

     total cpu time spent up to now is     3350.1 secs

     total energy              =    -900.60158243 Ry
     Harris-Foulkes estimate   =    -900.60158694 Ry
     estimated scf accuracy    <       0.00001451 Ry

     iteration #  6     ecut=    70.00 Ry     beta=0.70
     CG style diagonalization
     ethr =  1.41E-08,  avg # of iterations =  3.4

     negative rho (up, down):  1.192E-04 0.000E+00

     total cpu time spent up to now is     3406.0 secs

     total energy              =    -900.60158534 Ry
     Harris-Foulkes estimate   =    -900.60158619 Ry
     estimated scf accuracy    <       0.00000215 Ry

     iteration #  7     ecut=    70.00 Ry     beta=0.70
     CG style diagonalization
     ethr =  2.09E-09,  avg # of iterations =  4.0

     negative rho (up, down):  1.192E-04 0.000E+00

     total cpu time spent up to now is     3474.3 secs

     total energy              =    -900.60158578 Ry
     Harris-Foulkes estimate   =    -900.60158706 Ry
     estimated scf accuracy    <       0.00000634 Ry

     iteration #  8     ecut=    70.00 Ry     beta=0.70
     CG style diagonalization
     ethr =  2.09E-09,  avg # of iterations =  3.4

     negative rho (up, down):  1.192E-04 0.000E+00

     total cpu time spent up to now is     3530.4 secs

     total energy              =    -900.60158647 Ry
     Harris-Foulkes estimate   =    -900.60158650 Ry
     estimated scf accuracy    <       0.00000010 Ry

     iteration #  9     ecut=    70.00 Ry     beta=0.70
     CG style diagonalization
     ethr =  9.55E-11,  avg # of iterations =  5.7

     negative rho (up, down):  1.192E-04 0.000E+00

     total cpu time spent up to now is     3631.8 secs

     total energy              =    -900.60158661 Ry
     Harris-Foulkes estimate   =    -900.60158662 Ry
     estimated scf accuracy    <       0.00000002 Ry

     iteration # 10     ecut=    70.00 Ry     beta=0.70
     CG style diagonalization
     ethr =  1.50E-11,  avg # of iterations =  5.1

     negative rho (up, down):  1.192E-04 0.000E+00

     total cpu time spent up to now is     3722.0 secs

     total energy              =    -900.60158662 Ry
     Harris-Foulkes estimate   =    -900.60158663 Ry
     estimated scf accuracy    <          1.8E-09 Ry

     iteration # 11     ecut=    70.00 Ry     beta=0.70
     CG style diagonalization
     ethr =  1.70E-12,  avg # of iterations =  6.5

     negative rho (up, down):  1.192E-04 0.000E+00

     total cpu time spent up to now is     3837.2 secs

     End of self-consistent calculation

          k = 0.0000 0.0000 0.0000 ( 48761 PWs)   bands (ev):

   -61.2237 -61.0335 -61.0121 -61.0120 -35.4927 -35.4927 -35.4246 -35.3919
   -35.2368 -35.2367 -35.2258 -35.1899 -35.1899 -35.1494 -35.0741 -35.0741
   -14.8814 -13.8307 -13.0581 -13.0580 -13.0288 -12.9072 -12.9071 -10.2638
    -6.4013  -6.2822  -6.2822  -6.0447  -5.4479  -5.2974  -5.2974  -4.4333
    -4.4332  -4.1517  -3.2704  -3.1858  -3.1858  -2.5787  -2.5787  -2.4761
    -2.4470  -2.4470  -1.9220  -1.5156  -1.5156  -1.2176  -1.2176  -1.0797
    -1.0135  -0.6194  -0.5849  -0.5848   1.5506   1.5506   1.6342   1.9488
     2.0115   2.0116   2.6298   2.6298   3.0463   3.0472

          k = 0.0000 0.1155 0.0000 ( 48801 PWs)   bands (ev):

   -61.2236 -61.0331 -61.0125 -61.0120 -35.4899 -35.4871 -35.4239 -35.3876
   -35.2396 -35.2363 -35.2246 -35.1932 -35.1897 -35.1517 -35.0803 -35.0754
   -14.8459 -13.8135 -13.1103 -13.0616 -13.0388 -12.9286 -12.9066 -10.2842
    -6.3348  -6.2250  -6.2007  -5.9993  -5.4200  -5.2815  -5.2343  -4.4191
    -4.4157  -4.1351  -3.2975  -3.2226  -3.1678  -2.6830  -2.5460  -2.5455
    -2.4240  -2.4173  -1.9499  -1.5999  -1.5346  -1.4608  -1.2870  -1.0764
    -0.9912  -0.6902  -0.6263  -0.5446   1.5510   1.5612   1.6526   1.9006
     1.9913   2.0102   2.4874   2.6601   2.8797   3.0171

          k = 0.0000 0.2309 0.0000 ( 48770 PWs)   bands (ev):

   -61.2235 -61.0319 -61.0139 -61.0120 -35.4824 -35.4714 -35.4224 -35.3752
   -35.2479 -35.2351 -35.2211 -35.2022 -35.1894 -35.1578 -35.0976 -35.0788
   -14.7416 -13.7644 -13.2670 -13.0707 -13.0653 -12.9789 -12.9050 -10.3342
    -6.1586  -6.0643  -5.9704  -5.8674  -5.3649  -5.2352  -5.0330  -4.3869
    -4.3637  -4.0912  -3.3977  -3.3256  -3.0891  -2.9533  -2.7367  -2.4525
    -2.3601  -2.3578  -2.0090  -2.0077  -1.7586  -1.6901  -1.3900  -1.1463
    -0.9917  -0.7397  -0.7271  -0.5635   1.5510   1.5573   1.6782   1.7465
     2.0007   2.0268   2.1752   2.4735   2.6695   2.9236

          k = 0.0000 0.3464 0.0000 ( 48772 PWs)   bands (ev):

   -61.2233 -61.0301 -61.0159 -61.0120 -35.4726 -35.4488 -35.4208 -35.3578
   -35.2594 -35.2340 -35.2208 -35.2097 -35.1892 -35.1654 -35.1224 -35.0830
   -14.5745 -13.6993 -13.4845 -13.1421 -13.0820 -13.0132 -12.9030 -10.3904
    -5.9190  -5.8391  -5.6863  -5.6337  -5.2992  -5.1645  -4.7245  -4.3582
    -4.2759  -4.0272  -3.5393  -3.4825  -3.3112  -3.0178  -2.9540  -2.5904
    -2.4761  -2.3083  -2.2563  -2.1418  -1.8821  -1.8164  -1.4842  -1.2029
    -1.1085  -0.8287  -0.8069  -0.6199   1.5056   1.5393   1.5786   1.7143
     1.8447   2.0267   2.0697   2.1503   2.5042   2.6891

          k = 0.0000 0.4619 0.0000 ( 48764 PWs)   bands (ev):

   -61.2232 -61.0281 -61.0181 -61.0120 -35.4641 -35.4261 -35.4197 -35.3436
   -35.2660 -35.2356 -35.2334 -35.2024 -35.1896 -35.1710 -35.1477 -35.0865
   -14.3571 -13.8069 -13.5455 -13.2546 -13.0910 -13.0255 -12.9014 -10.4319
    -5.6936  -5.6296  -5.4619  -5.3604  -5.2255  -5.0875  -4.4194  -4.2685
    -4.1447  -3.9453  -3.7702  -3.6609  -3.5904  -3.3286  -3.1173  -2.8495
    -2.7661  -2.3106  -2.1762  -2.0540  -1.9318  -1.7404  -1.4672  -1.3245
    -1.2969  -0.9404  -0.8918  -0.6799   1.3970   1.4695   1.5092   1.6158
     1.8109   2.0236   2.0987   2.1037   2.2771   2.3949

          k = 0.0000-0.5774 0.0000 ( 48748 PWs)   bands (ev):

   -61.2231 -61.0271 -61.0191 -61.0120 -35.4608 -35.4193 -35.4152 -35.3401
   -35.2615 -35.2487 -35.2333 -35.1958 -35.1901 -35.1729 -35.1611 -35.0878
   -14.1616 -14.0120 -13.4843 -13.3315 -13.0944 -13.0289 -12.9008 -10.4469
    -5.5966  -5.5427  -5.3504  -5.2493  -5.1990  -5.0493  -4.2068  -4.1688
    -4.0388  -3.9949  -3.9245  -3.7036  -3.6671  -3.5399  -3.3855  -3.0179
    -2.6150  -2.4528  -2.1284  -1.9966  -1.8643  -1.6523  -1.5200  -1.4140
    -1.3134  -1.0599  -0.9133  -0.7064   1.3360   1.4189   1.4940   1.5557
     1.9004   2.0876   2.0924   2.1195   2.1790   2.2214

          k = 0.1000 0.1732 0.0000 ( 48791 PWs)   bands (ev):

   -61.2235 -61.0323 -61.0135 -61.0120 -35.4845 -35.4766 -35.4229 -35.3792
   -35.2456 -35.2352 -35.2221 -35.1996 -35.1892 -35.1561 -35.0917 -35.0780
   -14.7760 -13.7802 -13.1864 -13.1392 -13.0110 -12.9703 -12.9030 -10.3191
    -6.2187  -6.1002  -6.0545  -5.9108  -5.4039  -5.2018  -5.1245  -4.3927
    -4.3850  -4.1053  -3.3726  -3.2316  -3.1781  -2.8671  -2.6690  -2.4833
    -2.4043  -2.3503  -1.9909  -1.8715  -1.7189  -1.5721  -1.3933  -1.1392
    -0.9674  -0.7520  -0.6643  -0.5552   1.5368   1.5556   1.6618   1.8344
     1.9111   2.0893   2.2608   2.5894   2.6811   2.9532

          k = 0.1000 0.2887 0.0000 ( 48778 PWs)   bands (ev):

   -61.2234 -61.0307 -61.0152 -61.0120 -35.4752 -35.4581 -35.4214 -35.3638
   -35.2566 -35.2333 -35.2181 -35.2102 -35.1880 -35.1640 -35.1118 -35.0825
   -14.6402 -13.7190 -13.3663 -13.2093 -13.0490 -12.9844 -12.8946 -10.3707
    -6.0187  -5.8854  -5.7924  -5.7402  -5.3993  -5.0674  -4.8799  -4.3588
    -4.3261  -4.0569  -3.4817  -3.3558  -3.1782  -3.1230  -2.8876  -2.5216
    -2.3697  -2.3444  -2.2021  -2.0307  -1.9055  -1.7997  -1.4995  -1.1708
    -1.0069  -0.8374  -0.7104  -0.5872   1.4698   1.5027   1.6048   1.7598
     1.8897   1.9675   2.1998   2.2363   2.5633   2.7764

          k = 0.1000 0.4041 0.0000 ( 48753 PWs)   bands (ev):

   -61.2232 -61.0288 -61.0174 -61.0120 -35.4651 -35.4361 -35.4201 -35.3464
   -35.2679 -35.2317 -35.2278 -35.2086 -35.1870 -35.1721 -35.1353 -35.0872
   -14.4471 -13.6914 -13.5542 -13.2722 -13.1348 -12.9736 -12.8840 -10.4171
    -5.7750  -5.6683  -5.5440  -5.4826  -5.3483  -4.9348  -4.5467  -4.3303
    -4.2351  -3.9953  -3.6357  -3.5807  -3.4803  -3.2052  -3.0368  -2.9650
    -2.5114  -2.3685  -2.2486  -2.0381  -1.9855  -1.7844  -1.4938  -1.2678
    -1.1151  -0.9227  -0.8000  -0.6137   1.3729   1.4271   1.4915   1.6746
     1.7726   1.9298   2.0255   2.3061   2.3452   2.4768

          k = 0.1000 0.5196 0.0000 ( 48763 PWs)   bands (ev):

   -61.2231 -61.0270 -61.0192 -61.0120 -35.4584 -35.4196 -35.4190 -35.3367
   -35.2686 -35.2452 -35.2304 -35.2005 -35.1901 -35.1732 -35.1548 -35.0901
   -14.2173 -13.9124 -13.4978 -13.3529 -13.1874 -12.9700 -12.8769 -10.4436
    -5.6000  -5.5429  -5.3756  -5.3296  -5.2026  -4.8393  -4.3151  -4.1461
    -4.1113  -4.0280  -3.8851  -3.7366  -3.6584  -3.5036  -3.3457  -2.8441
    -2.7928  -2.5332  -2.2340  -1.9467  -1.8623  -1.7192  -1.4248  -1.3636
    -1.2385  -1.0148  -0.8971  -0.6318   1.3036   1.3629   1.4003   1.5426
     1.8474   1.9561   2.0232   2.1440   2.2320   2.3036

          k = 0.2000 0.3464 0.0000 ( 48776 PWs)   bands (ev):

   -61.2232 -61.0290 -61.0172 -61.0120 -35.4642 -35.4413 -35.4202 -35.3470
   -35.2695 -35.2300 -35.2237 -35.2127 -35.1838 -35.1749 -35.1289 -35.0887
   -14.4780 -13.6543 -13.4933 -13.3699 -13.1255 -12.9669 -12.8603 -10.4101
    -5.8095  -5.6593  -5.5776  -5.5401  -5.4121  -4.7794  -4.6680  -4.3173
    -4.2995  -4.0263  -3.5844  -3.4983  -3.3550  -3.2916  -3.0955  -2.9802
    -2.4428  -2.3156  -2.2084  -2.1294  -1.9337  -1.8773  -1.5076  -1.1973
    -1.0401  -0.9235  -0.7290  -0.5691   1.3136   1.3680   1.4670   1.6940
     1.8004   1.8699   2.0174   2.3314   2.4291   2.5010

          k = 0.2000 0.4619 0.0000 ( 48790 PWs)   bands (ev):

   -61.2231 -61.0269 -61.0194 -61.0119 -35.4533 -35.4269 -35.4194 -35.3305
   -35.2783 -35.2405 -35.2269 -35.2072 -35.1882 -35.1757 -35.1450 -35.0945
   -14.2670 -13.7394 -13.5662 -13.4340 -13.2161 -12.9677 -12.8264 -10.4381
    -5.6560  -5.5115  -5.3780  -5.3356  -5.2394  -4.5636  -4.3779  -4.3018
    -4.2290  -4.0216  -3.8951  -3.6556  -3.5571  -3.4739  -3.3063  -3.1314
    -2.7276  -2.4372  -2.3070  -2.0856  -1.9037  -1.7259  -1.3534  -1.2559
    -1.1217  -0.9869  -0.8022  -0.5253   1.1996   1.2526   1.3255   1.5141
     1.8054   1.8650   1.9449   2.1209   2.2236   2.3084

          k = 0.2000 0.5774 0.0000 ( 48766 PWs)   bands (ev):

   -61.2231 -61.0257 -61.0207 -61.0119 -35.4486 -35.4212 -35.4190 -35.3241
   -35.2769 -35.2526 -35.2257 -35.2026 -35.1959 -35.1690 -35.1546 -35.0968
   -14.0734 -13.9429 -13.5400 -13.4353 -13.2680 -12.9695 -12.8136 -10.4480
    -5.6515  -5.3982  -5.2624  -5.2469  -5.1361  -4.4698  -4.3254  -4.2239
    -4.1843  -4.0886  -3.9014  -3.8407  -3.6798  -3.5781  -3.3765  -3.1099
    -2.9068  -2.5142  -2.3577  -2.0243  -1.8474  -1.6426  -1.3586  -1.2351
    -1.1333  -1.0219  -0.8668  -0.5048   1.1657   1.2041   1.2649   1.4476
     1.8346   1.8730   1.9406   2.0207   2.1086   2.2078

          k = 0.3000 0.5196 0.0000 ( 48786 PWs)   bands (ev):

   -61.2231 -61.0249 -61.0215 -61.0119 -35.4411 -35.4263 -35.4189 -35.3144
   -35.2854 -35.2545 -35.2237 -35.2051 -35.1979 -35.1674 -35.1520 -35.1007
   -14.0520 -13.8278 -13.7051 -13.4032 -13.3022 -12.9771 -12.7864 -10.4486
    -5.6948  -5.2895  -5.2317  -5.1575  -5.1098  -4.5006  -4.3098  -4.2398
    -4.1306  -4.0434  -4.0373  -3.7760  -3.7042  -3.5318  -3.4167  -3.2750
    -3.0702  -2.4525  -2.2266  -2.1489  -1.9693  -1.5543  -1.3134  -1.2151
    -1.0562  -1.0139  -0.8275  -0.4378   1.1012   1.1250   1.2095   1.3952
     1.8119   1.8324   1.8758   2.0167   2.0598   2.1442

     the Fermi energy is    -0.5634 ev

!    total energy              =    -900.60158663 Ry
     Harris-Foulkes estimate   =    -900.60158663 Ry
     estimated scf accuracy    <          1.1E-10 Ry

     The total energy is the sum of the following terms:

     one-electron contribution =   -4113.58289419 Ry
     hartree contribution      =    2061.23551151 Ry
     xc contribution           =    -313.50757061 Ry
     ewald contribution        =    1465.25940047 Ry
     smearing contrib. (-TS)   =      -0.00603381 Ry

     convergence has been achieved in  11 iterations

     negative rho (up, down):  1.192E-04 0.000E+00

     Forces acting on atoms (Ry/au):

     atom    1 type  1   force =     0.00000000    0.00420917   -0.00033974
     atom    2 type  1   force =     0.00364525   -0.00210459   -0.00033974
     atom    3 type  1   force =     0.00000000    0.00000000    0.00039867
     atom    4 type  1   force =    -0.00364525   -0.00210459   -0.00033974
     atom    5 type  2   force =    -0.00086999   -0.00050229   -0.00187655
     atom    6 type  3   force =     0.00000000    0.00000000    0.01544022
     atom    7 type  2   force =     0.00086999   -0.00050229   -0.00187655
     atom    8 type  2   force =     0.00000000    0.00100458   -0.00187655
     atom    9 type  2   force =     0.00007185    0.00004148   -0.00074795
     atom   10 type  2   force =     0.00000000    0.00000000   -0.00694618
     atom   11 type  2   force =    -0.00007185    0.00004148   -0.00074795
     atom   12 type  2   force =     0.00000000   -0.00008297   -0.00074795

     Total force =     0.018857     Total SCF correction =     0.000017


     entering subroutine stress ...


     negative rho (up, down):  1.192E-04 0.000E+00
          total   stress  (Ry/bohr**3)                   (kbar)     P=   -1.53
  -0.00002120   0.00000000   0.00000000         -3.12      0.00      0.00
   0.00000000  -0.00002120  -0.00000000          0.00     -3.12     -0.00
   0.00000000   0.00000000   0.00001129          0.00      0.00      1.66


     number of scf cycles    =   4
     number of bfgs steps    =   3

     energy   old            =    -900.6002910236 Ry
     energy   new            =    -900.6015866284 Ry

     CASE: energy  _new < energy  _old

     new trust radius        =       0.0673529013 bohr
     new conv_thr            =       0.0000000013 Ry


ATOMIC_POSITIONS (angstrom)
Mo      -0.000000000   1.898396920   3.168472542
Mo      -1.603682285   4.676056040   3.168472542
Mo       3.247742000   1.875085000   3.189326929
Mo       1.603682285   4.676056040   3.168472542
Se       1.623676127   0.937429490   4.848498725
As       0.000000000   3.750169000   4.916448075
Se       4.871807873   0.937429490   4.848498725
Se       3.247742000   3.750394020   4.848498725
Se       1.628880361   0.940434156   1.514554069
Se       0.000000000   3.750169000   1.506544986
Se       4.866603639   0.940434156   1.514554069
Se       3.247742000   3.744384688   1.514554069



     Writing output data file mose2_as.save
     Check: negative starting charge=   -0.000775
     NEW-OLD atomic charge density approx. for the potential
     Check: negative starting charge=   -0.000770

     negative rho (up, down):  2.849E-04 0.000E+00

     total cpu time spent up to now is     3874.3 secs

     per-process dynamical memory:   126.4 Mb

     Self-consistent Calculation

     iteration #  1     ecut=    70.00 Ry     beta=0.70
     CG style diagonalization
     c_bands:  2 eigenvalues not converged
     c_bands:  3 eigenvalues not converged
     c_bands:  2 eigenvalues not converged
     c_bands:  3 eigenvalues not converged
     c_bands:  1 eigenvalues not converged
     c_bands:  5 eigenvalues not converged
     c_bands:  2 eigenvalues not converged
     ethr =  1.00E-06,  avg # of iterations = 11.0

     negative rho (up, down):  1.448E-04 0.000E+00

     total cpu time spent up to now is     4086.5 secs

     total energy              =    -900.60222908 Ry
     Harris-Foulkes estimate   =    -900.60248119 Ry
     estimated scf accuracy    <       0.00038250 Ry

     iteration #  2     ecut=    70.00 Ry     beta=0.70
     CG style diagonalization
     ethr =  3.71E-07,  avg # of iterations =  4.3

     negative rho (up, down):  1.242E-04 0.000E+00

     total cpu time spent up to now is     4159.8 secs

     total energy              =    -900.60197263 Ry
     Harris-Foulkes estimate   =    -900.60279508 Ry
     estimated scf accuracy    <       0.00297094 Ry

     iteration #  3     ecut=    70.00 Ry     beta=0.70
     CG style diagonalization
     ethr =  3.71E-07,  avg # of iterations =  3.7

     negative rho (up, down):  1.203E-04 0.000E+00

     total cpu time spent up to now is     4222.3 secs

     total energy              =    -900.60235393 Ry
     Harris-Foulkes estimate   =    -900.60244993 Ry
     estimated scf accuracy    <       0.00031461 Ry

     iteration #  4     ecut=    70.00 Ry     beta=0.70
     CG style diagonalization
     ethr =  3.05E-07,  avg # of iterations =  3.4

     negative rho (up, down):  1.198E-04 0.000E+00

     total cpu time spent up to now is     4277.5 secs

[...]
          total   stress  (Ry/bohr**3)                   (kbar)     P=   -3.35
  -0.00003303   0.00000000   0.00000000         -4.86      0.00      0.00
   0.00000000  -0.00003303  -0.00000000          0.00     -4.86     -0.00
   0.00000000   0.00000000  -0.00000236          0.00      0.00     -0.35


     number of scf cycles    =   8
     number of bfgs steps    =   7

     energy   old            =    -900.6029947086 Ry
     energy   new            =    -900.6032276423 Ry

     CASE: energy  _new < energy  _old

     new trust radius        =       0.0025948900 bohr
     new conv_thr            =       0.0000000002 Ry


ATOMIC_POSITIONS (angstrom)
Mo      -0.000000000   1.913768960   3.171031844
Mo      -1.590369708   4.668370020   3.171031844
Mo       3.247742000   1.875085000   3.184645242
Mo       1.590369708   4.668370020   3.171031844
Se       1.621939549   0.936426876   4.832231588
As      -0.000000000   3.750169000   4.945386557
Se       4.873544451   0.936426876   4.832231588
Se       3.247742000   3.752399247   4.832231588
Se       1.625281996   0.938356639   1.525995717
Se      -0.000000000   3.750169000   1.489086755
Se       4.870202004   0.938356639   1.525995717
Se       3.247742000   3.748539722   1.525995717



     Writing output data file mose2_as.save
     Check: negative starting charge=   -0.000767
     NEW-OLD atomic charge density approx. for the potential
     Check: negative starting charge=   -0.000768

     negative rho (up, down):  1.186E-04 0.000E+00

     total cpu time spent up to now is     7741.4 secs

     per-process dynamical memory:   126.4 Mb

     Self-consistent Calculation

     iteration #  1     ecut=    70.00 Ry     beta=0.70
     CG style diagonalization
     ethr =  1.00E-06,  avg # of iterations =  2.2

     Threshold (ethr) on eigenvalues was too large:
     Diagonalizing with lowered threshold

     CG style diagonalization
     c_bands:  4 eigenvalues not converged
     c_bands:  5 eigenvalues not converged
     c_bands:  5 eigenvalues not converged
     c_bands:  4 eigenvalues not converged
     ethr =  2.35E-09,  avg # of iterations = 12.0

     negative rho (up, down):  1.183E-04 0.000E+00

     total cpu time spent up to now is     8012.6 secs

     total energy              =    -900.60323900 Ry
     Harris-Foulkes estimate   =    -900.60323973 Ry
     estimated scf accuracy    <       0.00000105 Ry

     iteration #  2     ecut=    70.00 Ry     beta=0.70
     CG style diagonalization
     ethr =  1.02E-09,  avg # of iterations =  4.0

     negative rho (up, down):  1.183E-04 0.000E+00

     total cpu time spent up to now is     8081.2 secs

     total energy              =    -900.60323866 Ry
     Harris-Foulkes estimate   =    -900.60324019 Ry
     estimated scf accuracy    <       0.00000428 Ry

     iteration #  3     ecut=    70.00 Ry     beta=0.70
     CG style diagonalization
     ethr =  1.02E-09,  avg # of iterations =  3.7

     negative rho (up, down):  1.183E-04 0.000E+00

     total cpu time spent up to now is     8143.5 secs

     total energy              =    -900.60323924 Ry
     Harris-Foulkes estimate   =    -900.60323977 Ry
     estimated scf accuracy    <       0.00000224 Ry

     iteration #  4     ecut=    70.00 Ry     beta=0.70
     CG style diagonalization
     ethr =  1.02E-09,  avg # of iterations =  3.3

     negative rho (up, down):  1.183E-04 0.000E+00

     total cpu time spent up to now is     8198.1 secs

     total energy              =    -900.60323948 Ry
     Harris-Foulkes estimate   =    -900.60323954 Ry
     estimated scf accuracy    <       0.00000013 Ry

     iteration #  5     ecut=    70.00 Ry     beta=0.70
     CG style diagonalization
     ethr =  1.22E-10,  avg # of iterations =  3.8

     negative rho (up, down):  1.183E-04 0.000E+00

     total cpu time spent up to now is     8262.3 secs

     total energy              =    -900.60323950 Ry
     Harris-Foulkes estimate   =    -900.60323957 Ry
     estimated scf accuracy    <       0.00000027 Ry

     iteration #  6     ecut=    70.00 Ry     beta=0.70
     CG style diagonalization
     ethr =  1.22E-10,  avg # of iterations =  3.4

     negative rho (up, down):  1.183E-04 0.000E+00

     total cpu time spent up to now is     8317.8 secs

     total energy              =    -900.60323953 Ry
     Harris-Foulkes estimate   =    -900.60323953 Ry
     estimated scf accuracy    <          7.1E-09 Ry

     iteration #  7     ecut=    70.00 Ry     beta=0.70
     CG style diagonalization
     ethr =  6.89E-12,  avg # of iterations =  4.3

     negative rho (up, down):  1.183E-04 0.000E+00

     total cpu time spent up to now is     8391.6 secs

     total energy              =    -900.60323953 Ry
     Harris-Foulkes estimate   =    -900.60323954 Ry
     estimated scf accuracy    <       0.00000001 Ry

     iteration #  8     ecut=    70.00 Ry     beta=0.70
     CG style diagonalization
     ethr =  6.89E-12,  avg # of iterations =  3.4

     negative rho (up, down):  1.183E-04 0.000E+00

     total cpu time spent up to now is     8448.4 secs

     total energy              =    -900.60323953 Ry
     Harris-Foulkes estimate   =    -900.60323953 Ry
     estimated scf accuracy    <          5.2E-10 Ry

     iteration #  9     ecut=    70.00 Ry     beta=0.70
     CG style diagonalization
     ethr =  5.08E-13,  avg # of iterations =  4.9

     negative rho (up, down):  1.183E-04 0.000E+00

     total cpu time spent up to now is     8533.2 secs

     End of self-consistent calculation

          k = 0.0000 0.0000 0.0000 ( 48761 PWs)   bands (ev):

   -61.2234 -61.0344 -61.0124 -61.0124 -35.4906 -35.4906 -35.4281 -35.4009
   -35.2355 -35.2355 -35.2184 -35.1825 -35.1825 -35.1398 -35.0750 -35.0749
   -14.8829 -13.8308 -13.0701 -13.0701 -13.0288 -12.8973 -12.8973 -10.2152
    -6.4133  -6.2700  -6.2700  -6.0420  -5.4420  -5.3050  -5.3050  -4.4440
    -4.4439  -4.1206  -3.2558  -3.1648  -3.1648  -2.5569  -2.5569  -2.4469
    -2.4234  -2.4234  -2.0335  -1.4930  -1.4930  -1.1919  -1.1919  -1.1413
    -0.9970  -0.7301  -0.5230  -0.5230   1.5287   1.5288   1.6973   1.9499
     2.0053   2.0053   2.6201   2.6201   2.9899   2.9904

          k = 0.0000 0.1155 0.0000 ( 48801 PWs)   bands (ev):

   -61.2233 -61.0340 -61.0129 -61.0124 -35.4878 -35.4851 -35.4273 -35.3968
   -35.2384 -35.2350 -35.2172 -35.1857 -35.1824 -35.1421 -35.0809 -35.0762
   -14.8476 -13.8135 -13.1209 -13.0735 -13.0401 -12.9188 -12.8967 -10.2368
    -6.3458  -6.2137  -6.1886  -5.9956  -5.4145  -5.2877  -5.2405  -4.4293
    -4.4252  -4.1070  -3.2868  -3.2010  -3.1441  -2.6622  -2.5257  -2.5222
    -2.4024  -2.3888  -2.0502  -1.5813  -1.5268  -1.4472  -1.2578  -1.0734
    -1.0297  -0.7587  -0.5737  -0.5019   1.5292   1.5315   1.7197   1.9010
     1.9840   2.0035   2.4791   2.6519   2.8582   2.9776

          k = 0.0000 0.2309 0.0000 ( 48770 PWs)   bands (ev):

   -61.2232 -61.0329 -61.0142 -61.0124 -35.4804 -35.4697 -35.4257 -35.3849
   -35.2467 -35.2337 -35.2140 -35.1945 -35.1820 -35.1483 -35.0976 -35.0796
   -14.7436 -13.7640 -13.2753 -13.0825 -13.0674 -12.9702 -12.8951 -10.2898
    -6.1650  -6.0562  -5.9630  -5.8580  -5.3599  -5.2374  -5.0356  -4.3950
    -4.3697  -4.0721  -3.3912  -3.3043  -3.0662  -2.9329  -2.7169  -2.4385
    -2.3418  -2.3377  -2.0724  -1.9879  -1.7753  -1.6613  -1.3697  -1.1528
    -1.0233  -0.7848  -0.6985  -0.5101   1.5085   1.5303   1.7419   1.7484
     1.9930   2.0223   2.1724   2.4612   2.6675   2.8952

          k = 0.0000 0.3464 0.0000 ( 48772 PWs)   bands (ev):

   -61.2230 -61.0312 -61.0161 -61.0124 -35.4707 -35.4477 -35.4241 -35.3678
   -35.2580 -35.2325 -35.2134 -35.2029 -35.1816 -35.1560 -35.1209 -35.0838
   -14.5771 -13.6991 -13.4902 -13.1415 -13.0935 -13.0087 -12.8932 -10.3492
    -5.9185  -5.8363  -5.6918  -5.6109  -5.2927  -5.1611  -4.7252  -4.3619
    -4.2752  -4.0232  -3.5385  -3.4702  -3.2860  -3.0000  -2.9349  -2.5801
    -2.4822  -2.2919  -2.2406  -2.1234  -1.8632  -1.8457  -1.4740  -1.2175
    -1.1112  -0.8413  -0.8397  -0.5579   1.4360   1.5330   1.5635   1.7686
     1.8517   2.0229   2.0682   2.1396   2.5134   2.6747

          k = 0.0000 0.4619 0.0000 ( 48764 PWs)   bands (ev):

   -61.2228 -61.0294 -61.0181 -61.0124 -35.4623 -35.4259 -35.4229 -35.3532
   -35.2655 -35.2318 -35.2277 -35.1973 -35.1816 -35.1622 -35.1438 -35.0873
   -14.3609 -13.8113 -13.5440 -13.2533 -13.1023 -13.0231 -12.8916 -10.3931
    -5.6851  -5.6331  -5.4608  -5.3475  -5.2136  -5.0796  -4.4194  -4.2732
    -4.1340  -3.9519  -3.7653  -3.6661  -3.5672  -3.3206  -3.1010  -2.8324
    -2.7505  -2.3145  -2.1402  -2.0363  -1.9102  -1.7644  -1.4487  -1.3612
    -1.2661  -0.9796  -0.9345  -0.6130   1.3276   1.4285   1.5247   1.6373
     1.8441   2.0224   2.0842   2.0885   2.3083   2.3827

          k = 0.0000-0.5774 0.0000 ( 48748 PWs)   bands (ev):

   -61.2228 -61.0285 -61.0190 -61.0124 -35.4590 -35.4226 -35.4156 -35.3488
   -35.2646 -35.2380 -35.2316 -35.1922 -35.1818 -35.1644 -35.1549 -35.0886
   -14.1677 -14.0143 -13.4810 -13.3311 -13.1056 -13.0270 -12.8910 -10.4091
    -5.5835  -5.5489  -5.3494  -5.2411  -5.1824  -5.0404  -4.2281  -4.1385
    -4.0463  -4.0210  -3.8731  -3.7116  -3.6599  -3.5546  -3.3701  -2.9796
    -2.6054  -2.4452  -2.0880  -1.9856  -1.8677  -1.6220  -1.5699  -1.3639
    -1.3006  -1.1290  -0.9653  -0.6371   1.2678   1.3783   1.5172   1.5716
     1.9458   2.0243   2.0792   2.1239   2.2091   2.2254

          k = 0.1000 0.1732 0.0000 ( 48791 PWs)   bands (ev):

   -61.2232 -61.0332 -61.0138 -61.0124 -35.4825 -35.4748 -35.4261 -35.3887
   -35.2443 -35.2338 -35.2150 -35.1919 -35.1819 -35.1465 -35.0919 -35.0789
   -14.7779 -13.7799 -13.1978 -13.1439 -13.0182 -12.9609 -12.8930 -10.2738
    -6.2258  -6.0932  -6.0435  -5.9040  -5.4002  -5.2030  -5.1289  -4.4013
    -4.3923  -4.0832  -3.3639  -3.2129  -3.1529  -2.8460  -2.6483  -2.4665
    -2.3868  -2.3278  -2.0605  -1.8693  -1.6905  -1.5881  -1.3536  -1.1458
    -1.0047  -0.7817  -0.6490  -0.5020   1.5109   1.5187   1.7276   1.8317
     1.9085   2.0802   2.2576   2.5759   2.6763   2.9231

          k = 0.1000 0.2887 0.0000 ( 48778 PWs)   bands (ev):

   -61.2231 -61.0318 -61.0155 -61.0124 -35.4733 -35.4567 -35.4246 -35.3738
   -35.2552 -35.2319 -35.2112 -35.2025 -35.1808 -35.1544 -35.1108 -35.0834
   -14.6426 -13.7185 -13.3746 -13.2143 -13.0434 -12.9897 -12.8846 -10.3284
    -6.0201  -5.8826  -5.7948  -5.7192  -5.3943  -5.0653  -4.8812  -4.3639
    -4.3289  -4.0466  -3.4798  -3.3393  -3.1583  -3.0961  -2.8703  -2.5213
    -2.3677  -2.3212  -2.1835  -2.0320  -1.8989  -1.8225  -1.4801  -1.1802
    -1.0303  -0.8334  -0.7436  -0.5239   1.4311   1.4682   1.6391   1.7588
     1.9056   1.9659   2.1861   2.2364   2.5658   2.7547

          k = 0.1000 0.4041 0.0000 ( 48753 PWs)   bands (ev):

   -61.2229 -61.0300 -61.0175 -61.0124 -35.4633 -35.4355 -35.4233 -35.3566
   -35.2664 -35.2304 -35.2199 -35.2024 -35.1801 -35.1628 -35.1322 -35.0880
   -14.4504 -13.6941 -13.5565 -13.2761 -13.1306 -12.9791 -12.8749 -10.3776
    -5.7716  -5.6680  -5.5485  -5.4635  -5.3358  -4.9297  -4.5473  -4.3308
    -4.2308  -3.9998  -3.6350  -3.5836  -3.4490  -3.1918  -3.0240  -2.9420
    -2.5080  -2.3753  -2.2155  -2.0198  -1.9651  -1.8002  -1.4953  -1.2765
    -1.1135  -0.9277  -0.8498  -0.5534   1.3231   1.3916   1.4910   1.7027
     1.7844   1.9349   2.0192   2.2850   2.3732   2.4690

          k = 0.1000 0.5196 0.0000 ( 48763 PWs)   bands (ev):

   -61.2228 -61.0285 -61.0191 -61.0124 -35.4567 -35.4227 -35.4194 -35.3461
   -35.2693 -35.2373 -35.2277 -35.1954 -35.1828 -35.1648 -35.1489 -35.0910
   -14.2221 -13.9163 -13.4956 -13.3549 -13.1864 -12.9751 -12.8685 -10.4057
    -5.5961  -5.5363  -5.3790  -5.3219  -5.1829  -4.8327  -4.3134  -4.1564
    -4.1063  -4.0241  -3.8778  -3.7272  -3.6594  -3.5041  -3.3169  -2.8300
    -2.7764  -2.5240  -2.2009  -1.9493  -1.8530  -1.6982  -1.4641  -1.3303
    -1.2219  -1.0482  -0.9531  -0.5750   1.2428   1.3194   1.3961   1.5944
     1.8540   1.9488   2.0232   2.1574   2.2248   2.2665

          k = 0.2000 0.3464 0.0000 ( 48776 PWs)   bands (ev):

   -61.2229 -61.0302 -61.0173 -61.0124 -35.4624 -35.4404 -35.4235 -35.3576
   -35.2677 -35.2289 -35.2156 -35.2062 -35.1782 -35.1646 -35.1258 -35.0898
   -14.4810 -13.6536 -13.5030 -13.3711 -13.1176 -12.9727 -12.8537 -10.3703
    -5.8075  -5.6592  -5.5913  -5.5089  -5.4010  -4.7747  -4.6690  -4.3165
    -4.2993  -4.0279  -3.5894  -3.4994  -3.3109  -3.2735  -3.0948  -2.9558
    -2.4521  -2.2673  -2.2141  -2.1397  -1.9044  -1.8704  -1.5240  -1.2042
    -1.0515  -0.9112  -0.7766  -0.5111   1.2802   1.3276   1.4779   1.6982
     1.8046   1.8853   2.0088   2.3365   2.4356   2.4900

          k = 0.2000 0.4619 0.0000 ( 48790 PWs)   bands (ev):

   -61.2228 -61.0284 -61.0192 -61.0123 -35.4518 -35.4267 -35.4226 -35.3417
   -35.2766 -35.2346 -35.2231 -35.2009 -35.1823 -35.1669 -35.1393 -35.0957
   -14.2711 -13.7450 -13.5688 -13.4330 -13.2094 -12.9711 -12.8224 -10.4002
    -5.6513  -5.5048  -5.3864  -5.3283  -5.2141  -4.5590  -4.3773  -4.2988
    -4.2288  -4.0321  -3.8838  -3.6622  -3.5469  -3.4567  -3.2794  -3.1193
    -2.7105  -2.4253  -2.2958  -2.0951  -1.8577  -1.7244  -1.3895  -1.2360
    -1.1232  -0.9754  -0.8597  -0.4798   1.1525   1.2217   1.3052   1.5674
     1.7966   1.8640   1.9391   2.1413   2.2164   2.2770

          k = 0.2000 0.5774 0.0000 ( 48766 PWs)   bands (ev):

   -61.2227 -61.0275 -61.0202 -61.0123 -35.4471 -35.4224 -35.4212 -35.3351
   -35.2773 -35.2444 -35.2225 -35.1966 -35.1890 -35.1623 -35.1468 -35.0981
   -14.0798 -13.9462 -13.5445 -13.4313 -13.2623 -12.9722 -12.8103 -10.4108
    -5.6452  -5.3865  -5.2753  -5.2412  -5.1095  -4.4648  -4.3306  -4.2288
    -4.1528  -4.1171  -3.8992  -3.8089  -3.6902  -3.5773  -3.3487  -3.1067
    -2.8761  -2.5024  -2.3431  -2.0319  -1.8052  -1.6410  -1.3954  -1.2035
    -1.1166  -1.0149  -0.9455  -0.4639   1.1035   1.1925   1.2268   1.5165
     1.8271   1.8585   1.9441   2.0348   2.1073   2.1733

          k = 0.3000 0.5196 0.0000 ( 48786 PWs)   bands (ev):

   -61.2227 -61.0270 -61.0207 -61.0122 -35.4396 -35.4263 -35.4223 -35.3281
   -35.2830 -35.2466 -35.2202 -35.1982 -35.1914 -35.1613 -35.1435 -35.1025
   -14.0577 -13.8357 -13.7056 -13.3997 -13.2952 -12.9794 -12.7844 -10.4116
    -5.6872  -5.2817  -5.2307  -5.1682  -5.0764  -4.5110  -4.2901  -4.2321
    -4.1546  -4.0557  -4.0065  -3.7829  -3.6768  -3.5457  -3.3951  -3.2708
    -3.0275  -2.4404  -2.2238  -2.1608  -1.9199  -1.5530  -1.3476  -1.1899
    -1.0450  -0.9888  -0.9041  -0.4032   1.0269   1.1246   1.1765   1.4625
     1.7995   1.8276   1.8728   2.0274   2.0483   2.1246

     the Fermi energy is    -0.5160 ev

!    total energy              =    -900.60323953 Ry
     Harris-Foulkes estimate   =    -900.60323953 Ry
     estimated scf accuracy    <          1.4E-10 Ry

     The total energy is the sum of the following terms:

     one-electron contribution =   -4108.91106818 Ry
     hartree contribution      =    2058.88896040 Ry
     xc contribution           =    -313.46647502 Ry
     ewald contribution        =    1462.89090695 Ry
     smearing contrib. (-TS)   =      -0.00556369 Ry

     convergence has been achieved in   9 iterations

     negative rho (up, down):  1.183E-04 0.000E+00

     Forces acting on atoms (Ry/au):

     atom    1 type  1   force =     0.00000000    0.00054289   -0.00024183
     atom    2 type  1   force =     0.00047016   -0.00027144   -0.00024183
     atom    3 type  1   force =     0.00000000    0.00000000   -0.00042412
     atom    4 type  1   force =    -0.00047016   -0.00027144   -0.00024183
     atom    5 type  2   force =     0.00043209    0.00024947    0.00054371
     atom    6 type  3   force =     0.00000000    0.00000000   -0.00085016
     atom    7 type  2   force =    -0.00043209    0.00024947    0.00054371
     atom    8 type  2   force =     0.00000000   -0.00049893    0.00054371
     atom    9 type  2   force =    -0.00069222   -0.00039966    0.00024564
     atom   10 type  2   force =     0.00000000    0.00000000   -0.00036829
     atom   11 type  2   force =     0.00069222   -0.00039966    0.00024564
     atom   12 type  2   force =     0.00000000    0.00079931    0.00024564

     Total force =     0.002414     Total SCF correction =     0.000050


     entering subroutine stress ...


     negative rho (up, down):  1.183E-04 0.000E+00
          total   stress  (Ry/bohr**3)                   (kbar)     P=   -3.22
  -0.00003241   0.00000000   0.00000000         -4.77      0.00      0.00
   0.00000000  -0.00003241   0.00000000          0.00     -4.77      0.00
   0.00000000  -0.00000000  -0.00000078          0.00     -0.00     -0.11


     bfgs converged in   9 scf cycles and   8 bfgs steps
     (criteria: energy <  1.0E-04, force <  1.0E-03)

     End of BFGS Geometry Optimization

     Final energy   =    -900.6032395347 Ry
Begin final coordinates

ATOMIC_POSITIONS (angstrom)
Mo      -0.000000000   1.913768960   3.171031844
Mo      -1.590369708   4.668370020   3.171031844
Mo       3.247742000   1.875085000   3.184645242
Mo       1.590369708   4.668370020   3.171031844
Se       1.621939549   0.936426876   4.832231588
As      -0.000000000   3.750169000   4.945386557
Se       4.873544451   0.936426876   4.832231588
Se       3.247742000   3.752399247   4.832231588
Se       1.625281996   0.938356639   1.525995717
Se      -0.000000000   3.750169000   1.489086755
Se       4.870202004   0.938356639   1.525995717
Se       3.247742000   3.748539722   1.525995717
End final coordinates



     Writing output data file mose2_as.save
 
     init_run     :      9.21s CPU      9.92s WALL (       1 calls)
     electrons    :   8179.74s CPU   8230.28s WALL (       9 calls)
     update_pot   :     17.25s CPU     20.08s WALL (       8 calls)
     forces       :     45.88s CPU     47.20s WALL (       9 calls)
     stress       :    237.52s CPU    240.99s WALL (       9 calls)

     Called by init_run:
     wfcinit      :      4.36s CPU      4.56s WALL (       1 calls)
     potinit      :      0.65s CPU      0.67s WALL (       1 calls)

     Called by electrons:
     c_bands      :   7539.83s CPU   7556.59s WALL (     102 calls)
     sum_band     :    475.07s CPU    491.97s WALL (     102 calls)
     v_of_rho     :      3.25s CPU      3.26s WALL (     108 calls)
     newd         :    168.54s CPU    183.27s WALL (     108 calls)
     mix_rho      :      3.85s CPU      3.88s WALL (     102 calls)

     Called by c_bands:
     init_us_2    :     32.11s CPU     32.15s WALL (    3122 calls)
     ccgdiagg     :   7260.27s CPU   7275.72s WALL (    1466 calls)
     wfcrot       :    263.57s CPU    264.78s WALL (    1312 calls)

     Called by sum_band:
     sum_band:bec :      0.22s CPU      0.23s WALL (    1428 calls)
     addusdens    :    271.26s CPU    287.38s WALL (     102 calls)

     Called by *cgdiagg:
     h_psi        :   3609.18s CPU   3618.36s WALL (  326533 calls)
     s_psi        :   2278.59s CPU   2282.55s WALL (  651754 calls)
     cdiaghg      :      1.76s CPU      2.07s WALL (    1312 calls)

     Called by h_psi:
     add_vuspsi   :   1150.63s CPU   1151.98s WALL (  326533 calls)
     h_1psi       :   4524.28s CPU   4534.90s WALL (  325221 calls)

     General routines
     calbec       :   2361.81s CPU   2366.11s WALL (  653812 calls)
     fft          :     23.31s CPU     23.61s WALL (    1028 calls)
     ffts         :      0.37s CPU      0.39s WALL (     210 calls)
     fftw         :    758.83s CPU    761.85s WALL (  902282 calls)
     interpolate  :      3.52s CPU      3.60s WALL (     210 calls)
     davcio       :      0.02s CPU      0.89s WALL (      14 calls)
 
     Parallel routines
     fft_scatter  :    392.52s CPU    394.47s WALL (  903520 calls)
 
     PWSCF        :     2h21m CPU        2h22m WALL

 
   This run was terminated on:  18:13:11  26Apr2017            

=------------------------------------------------------------------------------=
   JOB DONE.
=------------------------------------------------------------------------------=
