
     Program PWSCF v.5.4.0 starts on 26Apr2017 at 15:48:59 

     This program is part of the open-source Quantum ESPRESSO suite
     for quantum simulation of materials; please cite
         "P. Giannozzi et al., J. Phys.:Condens. Matter 21 395502 (2009);
          URL http://www.quantum-espresso.org", 
     in publications or presentations arising from this work. More details at
     http://www.quantum-espresso.org/quote

     Parallel version (MPI), running on    24 processors
     R & G space division:  proc/nbgrp/npool/nimage =      24
     Waiting for input...
     Reading input from standard input
Warning: card &CELL ignored
Warning: card  CELL_DYNAMICS = 'BFGS', ignored
Warning: card  PRESS=0.1D0, ignored
Warning: card / ignored

     Current dimensions of program PWSCF are:
     Max number of different atomic species (ntypx) = 10
     Max number of k-points (npk) =  40000
     Max angular momentum in pseudopotentials (lmaxx) =  3

     Subspace diagonalization in iterative solution of the eigenvalue problem:
     a serial algorithm will be used

 
     Parallelization info
     --------------------
     sticks:   dense  smooth     PW     G-vecs:    dense   smooth      PW
     Min         302     121     32                64272    16243    2260
     Max         303     122     33                64287    16271    2275
     Sum        7267    2905    769              1542757   390237   54333
 


     bravais-lattice index     =            4
     lattice parameter (alat)  =      12.2747  a.u.
     unit-cell volume          =    4931.5212 (a.u.)^3
     number of atoms/cell      =           12
     number of atomic types    =            3
     number of electrons       =       105.00
     number of Kohn-Sham states=           64
     kinetic-energy cutoff     =      70.0000  Ry
     charge density cutoff     =     700.0000  Ry
     convergence threshold     =      1.0E-08
     mixing beta               =       0.7000
     number of iterations used =            8  plain     mixing
     Exchange-correlation      =  SLA  PZ   NOGX NOGC ( 1  1  0  0 0 0)
     nstep                     =           50


     celldm(1)=  12.274692  celldm(2)=   0.000000  celldm(3)=   3.079062
     celldm(4)=   0.000000  celldm(5)=   0.000000  celldm(6)=   0.000000

     crystal axes: (cart. coord. in units of alat)
               a(1) = (   1.000000   0.000000   0.000000 )  
               a(2) = (  -0.500000   0.866025   0.000000 )  
               a(3) = (   0.000000   0.000000   3.079062 )  

     reciprocal axes: (cart. coord. in units 2 pi/alat)
               b(1) = (  1.000000  0.577350  0.000000 )  
               b(2) = (  0.000000  1.154701  0.000000 )  
               b(3) = (  0.000000  0.000000  0.324774 )  


     PseudoPot. # 1 for Mo read from file:
     /afs/crc.nd.edu/user/j/jencomen/espresso/pseudo/Mo_LDA.UPF
     MD5 check sum: f5ddb34c5c8cdf9395e9f47ee8c17b30
     Pseudo is Ultrasoft + core correction, Zval = 14.0
     Generated by new atomic code, or converted to UPF format
     Using radial grid of  889 points,  6 beta functions with: 
                l(1) =   0
                l(2) =   0
                l(3) =   1
                l(4) =   1
                l(5) =   2
                l(6) =   2
     Q(r) pseudized with  6 coefficients,  rinner =    1.000   1.000   1.000
                                                       1.000   1.000

     PseudoPot. # 2 for Se read from file:
     /afs/crc.nd.edu/user/j/jencomen/espresso/pseudo/Se_LDA.UPF
     MD5 check sum: 29da00cbf48820a058e3666752a4b224
     Pseudo is Ultrasoft + core correction, Zval =  6.0
     Generated by new atomic code, or converted to UPF format
     Using radial grid of  877 points,  6 beta functions with: 
                l(1) =   0
                l(2) =   0
                l(3) =   1
                l(4) =   1
                l(5) =   2
                l(6) =   2
     Q(r) pseudized with  8 coefficients,  rinner =    1.300   1.300   1.300
                                                       1.300   1.300

     PseudoPot. # 3 for F  read from file:
     /afs/crc.nd.edu/user/j/jencomen/espresso/pseudo/F_LDA.UPF
     MD5 check sum: b55d989075ece9c6a2e5eaa43b4e1062
     Pseudo is Ultrasoft, Zval =  7.0
     Generated by new atomic code, or converted to UPF format
     Using radial grid of  799 points,  4 beta functions with: 
                l(1) =   0
                l(2) =   0
                l(3) =   1
                l(4) =   1
     Q(r) pseudized with  8 coefficients,  rinner =    0.950   0.950   0.950


     atomic species   valence    mass     pseudopotential
        Mo            14.00    95.95000     Mo( 1.00)
        Se             6.00    78.97100     Se( 1.00)
        F              7.00    18.99800     F ( 1.00)

      6 Sym. Ops. (no inversion) found



   Cartesian axes

     site n.     atom                  positions (alat units)
         1           Mo  tau(   1) = (   0.0000000   0.2886750   0.4901723  )
         2           Mo  tau(   2) = (  -0.2499999   0.7216875   0.4901723  )
         3           Mo  tau(   3) = (   0.4999997   0.2886750   0.4901723  )
         4           Mo  tau(   4) = (   0.2499999   0.7216875   0.4901723  )
         5           Se  tau(   5) = (   0.2499999   0.1443374   0.7431011  )
         6           F   tau(   6) = (   0.0000000   0.5773499   0.7431011  )
         7           Se  tau(   7) = (   0.7499996   0.1443374   0.7431011  )
         8           Se  tau(   8) = (   0.4999997   0.5773499   0.7431011  )
         9           Se  tau(   9) = (   0.2499999   0.1443374   0.2372435  )
        10           Se  tau(  10) = (   0.0000000   0.5773499   0.2372435  )
        11           Se  tau(  11) = (   0.7499996   0.1443374   0.2372435  )
        12           Se  tau(  12) = (   0.4999997   0.5773499   0.2372435  )

     number of k points=    14  gaussian smearing, width (Ry)=  0.0100
                       cart. coord. in units 2pi/alat
        k(    1) = (   0.0000000   0.0000000   0.0000000), wk =   0.0200000
        k(    2) = (   0.0000000   0.1154701   0.0000000), wk =   0.1200000
        k(    3) = (   0.0000000   0.2309401   0.0000000), wk =   0.1200000
        k(    4) = (   0.0000000   0.3464102   0.0000000), wk =   0.1200000
        k(    5) = (   0.0000000   0.4618802   0.0000000), wk =   0.1200000
        k(    6) = (   0.0000000  -0.5773503   0.0000000), wk =   0.0600000
        k(    7) = (   0.1000000   0.1732051   0.0000000), wk =   0.1200000
        k(    8) = (   0.1000000   0.2886751   0.0000000), wk =   0.2400000
        k(    9) = (   0.1000000   0.4041452   0.0000000), wk =   0.2400000
        k(   10) = (   0.1000000   0.5196152   0.0000000), wk =   0.2400000
        k(   11) = (   0.2000000   0.3464102   0.0000000), wk =   0.1200000
        k(   12) = (   0.2000000   0.4618802   0.0000000), wk =   0.2400000
        k(   13) = (   0.2000000   0.5773503   0.0000000), wk =   0.1200000
        k(   14) = (   0.3000000   0.5196152   0.0000000), wk =   0.1200000

     Dense  grid:  1542757 G-vectors     FFT dimensions: ( 108, 108, 320)

     Smooth grid:   390237 G-vectors     FFT dimensions: (  72,  72, 216)

     Largest allocated arrays     est. size (Mb)     dimensions
        Kohn-Sham Wavefunctions         2.02 Mb     (    2064,   64)
        NL pseudopotentials             6.49 Mb     (    2064,  206)
        Each V/rho on FFT grid          2.49 Mb     (  163296)
        Each G-vector array             0.49 Mb     (   64287)
        G-vector shells                 0.20 Mb     (   26242)
     Largest temporary arrays     est. size (Mb)     dimensions
        Each subspace H/S matrix        0.06 Mb     (      64,   64)
        Each <psi_i|beta_j> matrix      0.20 Mb     (     206,   64)
        Arrays for rho mixing          19.93 Mb     (  163296,    8)

     Initial potential from superposition of free atoms
     Check: negative starting charge=   -0.000798

     starting charge  104.99617, renormalised to  105.00000

     negative rho (up, down):  7.983E-04 0.000E+00
     Starting wfc are   84 randomized atomic wfcs

     total cpu time spent up to now is        9.6 secs

     per-process dynamical memory:   104.2 Mb

     Self-consistent Calculation

     iteration #  1     ecut=    70.00 Ry     beta=0.70
     CG style diagonalization
     ethr =  1.00E-02,  avg # of iterations =  2.6

     Threshold (ethr) on eigenvalues was too large:
     Diagonalizing with lowered threshold

     CG style diagonalization
     ethr =  8.89E-04,  avg # of iterations =  2.0

     negative rho (up, down):  2.114E-04 0.000E+00

     total cpu time spent up to now is      106.3 secs

     total energy              =    -908.78334212 Ry
     Harris-Foulkes estimate   =    -909.50448881 Ry
     estimated scf accuracy    <       0.91211873 Ry

     iteration #  2     ecut=    70.00 Ry     beta=0.70
     CG style diagonalization
     ethr =  8.69E-04,  avg # of iterations =  4.6

     negative rho (up, down):  5.609E-05 0.000E+00

     total cpu time spent up to now is      182.7 secs

     total energy              =    -908.10906301 Ry
     Harris-Foulkes estimate   =    -910.55136723 Ry
     estimated scf accuracy    <       8.61439998 Ry

     iteration #  3     ecut=    70.00 Ry     beta=0.70
     CG style diagonalization
     ethr =  8.69E-04,  avg # of iterations =  4.4

     negative rho (up, down):  4.247E-05 0.000E+00

     total cpu time spent up to now is      256.6 secs

     total energy              =    -909.20717456 Ry
     Harris-Foulkes estimate   =    -909.33616830 Ry
     estimated scf accuracy    <       0.34113151 Ry

     iteration #  4     ecut=    70.00 Ry     beta=0.70
     CG style diagonalization
     ethr =  3.25E-04,  avg # of iterations =  3.6

     negative rho (up, down):  3.930E-05 0.000E+00

     total cpu time spent up to now is      315.2 secs

     total energy              =    -909.27433621 Ry
     Harris-Foulkes estimate   =    -909.34411243 Ry
     estimated scf accuracy    <       0.27133592 Ry

     iteration #  5     ecut=    70.00 Ry     beta=0.70
     CG style diagonalization
     ethr =  2.58E-04,  avg # of iterations =  3.2

     negative rho (up, down):  5.228E-05 0.000E+00

     total cpu time spent up to now is      365.8 secs

     total energy              =    -909.30684374 Ry
     Harris-Foulkes estimate   =    -909.31832973 Ry
     estimated scf accuracy    <       0.03101897 Ry

     iteration #  6     ecut=    70.00 Ry     beta=0.70
     CG style diagonalization
     ethr =  2.95E-05,  avg # of iterations =  3.6

     negative rho (up, down):  5.942E-05 0.000E+00

     total cpu time spent up to now is      424.0 secs

     total energy              =    -909.31206065 Ry
     Harris-Foulkes estimate   =    -909.31745634 Ry
     estimated scf accuracy    <       0.02188828 Ry

     iteration #  7     ecut=    70.00 Ry     beta=0.70
     CG style diagonalization
     ethr =  2.08E-05,  avg # of iterations =  3.1

     negative rho (up, down):  7.595E-05 0.000E+00

     total cpu time spent up to now is      472.7 secs

     total energy              =    -909.31454183 Ry
     Harris-Foulkes estimate   =    -909.31557254 Ry
     estimated scf accuracy    <       0.00342416 Ry

     iteration #  8     ecut=    70.00 Ry     beta=0.70
     CG style diagonalization
     c_bands:  1 eigenvalues not converged
     c_bands:  1 eigenvalues not converged
     ethr =  3.26E-06,  avg # of iterations =  3.7

     negative rho (up, down):  9.291E-05 0.000E+00

     total cpu time spent up to now is      534.0 secs

     total energy              =    -909.31512158 Ry
     Harris-Foulkes estimate   =    -909.31522280 Ry
     estimated scf accuracy    <       0.00031523 Ry

     iteration #  9     ecut=    70.00 Ry     beta=0.70
     CG style diagonalization
     ethr =  3.00E-07,  avg # of iterations =  4.3

     negative rho (up, down):  1.098E-04 0.000E+00

     total cpu time spent up to now is      606.8 secs

     total energy              =    -909.31528219 Ry
     Harris-Foulkes estimate   =    -909.31530952 Ry
     estimated scf accuracy    <       0.00012744 Ry

     iteration # 10     ecut=    70.00 Ry     beta=0.70
     CG style diagonalization
     ethr =  1.21E-07,  avg # of iterations =  3.8

     negative rho (up, down):  1.209E-04 0.000E+00

     total cpu time spent up to now is      669.2 secs

     total energy              =    -909.31531666 Ry
     Harris-Foulkes estimate   =    -909.31532006 Ry
     estimated scf accuracy    <       0.00000868 Ry

     iteration # 11     ecut=    70.00 Ry     beta=0.70
     CG style diagonalization
     ethr =  8.27E-09,  avg # of iterations =  7.2

     negative rho (up, down):  1.210E-04 0.000E+00

     total cpu time spent up to now is      798.0 secs

     total energy              =    -909.31534566 Ry
     Harris-Foulkes estimate   =    -909.31534628 Ry
     estimated scf accuracy    <       0.00000208 Ry

     iteration # 12     ecut=    70.00 Ry     beta=0.70
     CG style diagonalization
     ethr =  1.98E-09,  avg # of iterations =  4.7

     negative rho (up, down):  1.230E-04 0.000E+00

     total cpu time spent up to now is      878.1 secs

     total energy              =    -909.31534701 Ry
     Harris-Foulkes estimate   =    -909.31534708 Ry
     estimated scf accuracy    <       0.00000021 Ry

     iteration # 13     ecut=    70.00 Ry     beta=0.70
     CG style diagonalization
     ethr =  2.01E-10,  avg # of iterations =  6.1

     negative rho (up, down):  1.236E-04 0.000E+00

     total cpu time spent up to now is      984.5 secs

     total energy              =    -909.31534736 Ry
     Harris-Foulkes estimate   =    -909.31534737 Ry
     estimated scf accuracy    <       0.00000002 Ry

     iteration # 14     ecut=    70.00 Ry     beta=0.70
     CG style diagonalization
     ethr =  1.77E-11,  avg # of iterations =  6.2

     negative rho (up, down):  1.234E-04 0.000E+00

     total cpu time spent up to now is     1096.8 secs

     End of self-consistent calculation

          k = 0.0000 0.0000 0.0000 ( 48761 PWs)   bands (ev):

   -61.4748 -61.4498 -61.4498 -61.4234 -35.8194 -35.8194 -35.7275 -35.6917
   -35.6399 -35.6399 -35.6226 -35.6053 -35.5392 -35.5392 -35.4558 -35.4558
   -22.8127 -15.1179 -13.9979 -13.4053 -13.4053 -13.2603 -13.1577 -13.1576
    -6.7581  -6.5347  -6.5346  -6.3788  -5.8414  -5.6768  -5.6768  -5.2073
    -4.7799  -4.7798  -4.1879  -4.1879  -3.7297  -3.6202  -3.2092  -3.2092
    -2.7735  -2.7735  -2.7549  -2.4248  -2.4248  -1.7388  -1.7388  -1.7342
    -1.4055  -1.4054  -1.3017  -1.0989   0.8570   0.8571   0.9946   1.3037
     1.3699   1.3699   1.8014   1.8447   1.8447   2.4208   2.4210   3.0423

          k = 0.0000 0.1155 0.0000 ( 48801 PWs)   bands (ev):

   -61.4741 -61.4503 -61.4498 -61.4235 -35.8153 -35.8132 -35.7233 -35.6893
   -35.6410 -35.6399 -35.6231 -35.6077 -35.5442 -35.5399 -35.4625 -35.4570
   -22.8126 -15.0848 -13.9834 -13.4490 -13.4081 -13.2744 -13.1808 -13.1570
    -6.6924  -6.4827  -6.4712  -6.3331  -5.8123  -5.6701  -5.6372  -5.2044
    -4.7662  -4.7616  -4.2058  -4.1858  -3.7224  -3.6284  -3.2972  -3.1865
    -2.8884  -2.7700  -2.7567  -2.4408  -2.4398  -1.8519  -1.8297  -1.7019
    -1.5925  -1.4176  -1.1952  -1.1096   0.7685   0.7834   0.9952   1.3139
     1.3632   1.4339   1.7171   1.8425   1.9074   2.2661   2.4252   2.9987

          k = 0.0000 0.2309 0.0000 ( 48770 PWs)   bands (ev):

   -61.4723 -61.4517 -61.4498 -61.4240 -35.8038 -35.7958 -35.7120 -35.6817
   -35.6444 -35.6400 -35.6243 -35.6153 -35.5585 -35.5409 -35.4815 -35.4602
   -22.8122 -14.9874 -13.9425 -13.5877 -13.4154 -13.2993 -13.2406 -13.1553
    -6.5163  -6.3374  -6.2957  -6.1935  -5.7565  -5.6517  -5.5001  -5.1948
    -4.7339  -4.7077  -4.2655  -4.1871  -3.7364  -3.6445  -3.4990  -3.1495
    -3.1270  -2.8296  -2.7121  -2.5542  -2.4859  -2.2154  -1.9255  -1.7674
    -1.7382  -1.4227  -1.1507  -1.1474   0.5728   0.6339   0.9447   1.3286
     1.3470   1.5493   1.6160   1.8405   1.9230   1.9991   2.4425   2.7124

          k = 0.0000 0.3464 0.0000 ( 48772 PWs)   bands (ev):

   -61.4695 -61.4540 -61.4498 -61.4245 -35.7874 -35.7705 -35.6974 -35.6671
   -35.6501 -35.6406 -35.6276 -35.6254 -35.5799 -35.5408 -35.5094 -35.4646
   -22.8118 -14.8317 -13.9024 -13.7782 -13.4243 -13.3602 -13.2865 -13.1531
    -6.2791  -6.1344  -6.0695  -5.9560  -5.7018  -5.6266  -5.3094  -5.1440
    -4.7026  -4.6207  -4.3707  -4.2039  -3.8985  -3.6916  -3.6468  -3.4694
    -3.0611  -2.9576  -2.8123  -2.6329  -2.5835  -2.4605  -2.0190  -1.9275
    -1.7946  -1.4168  -1.2275  -1.1633   0.3622   0.4878   0.8518   1.2787
     1.3326   1.5380   1.6318   1.6930   1.8461   2.0232   2.3517   2.4252

          k = 0.0000 0.4619 0.0000 ( 48764 PWs)   bands (ev):

   -61.4662 -61.4568 -61.4498 -61.4250 -35.7711 -35.7448 -35.6837 -35.6592
   -35.6453 -35.6447 -35.6370 -35.6262 -35.6031 -35.5397 -35.5396 -35.4683
   -22.8114 -14.6317 -14.0799 -13.7712 -13.4569 -13.4315 -13.2987 -13.1513
    -6.0477  -5.9432  -5.8548  -5.7284  -5.6386  -5.6051  -5.2345  -4.9657
    -4.6629  -4.5155  -4.4620  -4.2235  -4.1399  -3.9793  -3.7443  -3.6206
    -3.2660  -3.0244  -2.9693  -2.6236  -2.5899  -2.4072  -2.1011  -2.0897
    -1.7904  -1.4768  -1.3161  -1.1911   0.2158   0.3894   0.7566   1.1943
     1.3263   1.4124   1.6639   1.7228   1.8499   1.9468   2.1128   2.2344

          k = 0.0000-0.5774 0.0000 ( 48748 PWs)   bands (ev):

   -61.4641 -61.4587 -61.4498 -61.4251 -35.7637 -35.7326 -35.6747 -35.6656
   -35.6509 -35.6381 -35.6308 -35.6266 -35.6157 -35.5558 -35.5390 -35.4699
   -22.8113 -14.4694 -14.2576 -13.7263 -13.5130 -13.4343 -13.3018 -13.1506
    -5.9371  -5.8611  -5.7464  -5.6772  -5.5973  -5.5949  -5.1664  -4.9592
    -4.5308  -4.4610  -4.4222  -4.3214  -4.2199  -4.2084  -3.8649  -3.5438
    -3.5263  -3.0295  -2.9540  -2.6029  -2.6008  -2.3029  -2.2139  -2.1496
    -1.6769  -1.6287  -1.3348  -1.2041   0.1659   0.3562   0.7157   1.1565
     1.3224   1.3737   1.6667   1.7790   1.8465   1.9113   1.9888   2.1540

          k = 0.1000 0.1732 0.0000 ( 48791 PWs)   bands (ev):

   -61.4729 -61.4512 -61.4498 -61.4239 -35.8074 -35.8014 -35.7156 -35.6843
   -35.6430 -35.6402 -35.6239 -35.6129 -35.5529 -35.5415 -35.4751 -35.4594
   -22.8124 -15.0195 -13.9554 -13.5236 -13.4454 -13.2770 -13.2238 -13.1556
    -6.5721  -6.3770  -6.3570  -6.2410  -5.7884  -5.6172  -5.5693  -5.1986
    -4.7413  -4.7281  -4.2384  -4.1911  -3.7220  -3.6445  -3.4407  -3.1539
    -3.0696  -2.8012  -2.7240  -2.5335  -2.4612  -2.0537  -1.9504  -1.7969
    -1.6365  -1.4338  -1.1513  -1.1318   0.6178   0.6879   0.9709   1.3246
     1.3506   1.5100   1.6235   1.8384   1.9826   2.0305   2.4363   2.8134

          k = 0.1000 0.2887 0.0000 ( 48778 PWs)   bands (ev):

   -61.4705 -61.4529 -61.4499 -61.4243 -35.7930 -35.7800 -35.7028 -35.6732
   -35.6473 -35.6411 -35.6249 -35.6243 -35.5685 -35.5432 -35.4981 -35.4636
   -22.8120 -14.8928 -13.9056 -13.6840 -13.5048 -13.3019 -13.2573 -13.1529
    -6.3662  -6.1921  -6.1573  -6.0549  -5.7891  -5.5246  -5.4002  -5.1807
    -4.7078  -4.6646  -4.3087  -4.2199  -3.7877  -3.6906  -3.6104  -3.3663
    -3.1382  -2.8978  -2.6977  -2.6232  -2.5031  -2.4106  -2.1218  -1.8439
    -1.6964  -1.4368  -1.1923  -1.1263   0.4136   0.5491   0.9080   1.2614
     1.3623   1.5363   1.5595   1.7290   1.8379   2.0858   2.4262   2.4957

          k = 0.1000 0.4041 0.0000 ( 48753 PWs)   bands (ev):

   -61.4675 -61.4554 -61.4500 -61.4248 -35.7754 -35.7537 -35.6892 -35.6573
   -35.6521 -35.6443 -35.6381 -35.6252 -35.5887 -35.5433 -35.5265 -35.4682
   -22.8115 -14.7135 -13.9497 -13.7981 -13.5517 -13.3914 -13.2406 -13.1498
    -6.1252  -5.9939  -5.9287  -5.8135  -5.7788  -5.4381  -5.2582  -5.0550
    -4.6832  -4.5760  -4.4406  -4.2489  -3.9987  -3.8416  -3.7270  -3.6253
    -3.2069  -3.0196  -2.8889  -2.6636  -2.5568  -2.4459  -2.1902  -1.9248
    -1.7486  -1.4595  -1.2963  -1.1111   0.2466   0.4165   0.8214   1.1784
     1.2904   1.4478   1.5892   1.6453   1.8173   2.0651   2.1798   2.3065

          k = 0.1000 0.5196 0.0000 ( 48763 PWs)   bands (ev):

   -61.4644 -61.4581 -61.4501 -61.4251 -35.7617 -35.7327 -35.6772 -35.6630
   -35.6582 -35.6424 -35.6307 -35.6249 -35.6080 -35.5517 -35.5415 -35.4713
   -22.8113 -14.5069 -14.1793 -13.7315 -13.5971 -13.4583 -13.2316 -13.1476
    -5.9396  -5.8729  -5.7745  -5.7303  -5.6428  -5.3692  -5.1970  -4.9494
    -4.6050  -4.4975  -4.4547  -4.3041  -4.2136  -4.1189  -3.9569  -3.5753
    -3.3235  -3.1971  -2.9911  -2.7272  -2.4661  -2.3366  -2.2330  -1.9998
    -1.7169  -1.5712  -1.3767  -1.0980   0.1603   0.3376   0.7570   1.1180
     1.2201   1.3896   1.6139   1.6726   1.8227   1.9411   2.0250   2.1604

          k = 0.2000 0.3464 0.0000 ( 48776 PWs)   bands (ev):

   -61.4679 -61.4548 -61.4503 -61.4247 -35.7764 -35.7572 -35.6914 -35.6588
   -35.6525 -35.6435 -35.6409 -35.6246 -35.5795 -35.5474 -35.5208 -35.4689
   -22.8116 -14.7416 -13.8529 -13.8160 -13.6421 -13.3786 -13.2062 -13.1469
    -6.1563  -5.9849  -5.9697  -5.8547  -5.8330  -5.3143  -5.2816  -5.1251
    -4.6803  -4.6154  -4.4069  -4.2882  -3.8700  -3.8355  -3.7310  -3.6468
    -3.2865  -2.9870  -2.8370  -2.5848  -2.5128  -2.4267  -2.3810  -1.8361
    -1.6952  -1.4690  -1.2771  -1.0570   0.2494   0.4307   0.8674   1.1436
     1.2840   1.4155   1.5505   1.5894   1.7970   2.1416   2.1982   2.3386

          k = 0.2000 0.4619 0.0000 ( 48790 PWs)   bands (ev):

   -61.4649 -61.4571 -61.4507 -61.4250 -35.7578 -35.7336 -35.6803 -35.6677
   -35.6565 -35.6480 -35.6349 -35.6240 -35.5943 -35.5500 -35.5424 -35.4739
   -22.8113 -14.5466 -14.0299 -13.8052 -13.6923 -13.4657 -13.1760 -13.1355
    -6.0023  -5.8336  -5.7718  -5.7460  -5.6573  -5.2355  -5.1597  -4.9469
    -4.6625  -4.5977  -4.5379  -4.3220  -4.1338  -4.0081  -3.9204  -3.7070
    -3.4184  -3.1047  -3.0639  -2.6934  -2.4842  -2.3729  -2.2614  -1.8314
    -1.7117  -1.5350  -1.3783  -0.9752   0.1470   0.3137   0.8226   1.0343
     1.1598   1.3099   1.5663   1.5784   1.7251   1.9199   2.0885   2.2140

          k = 0.2000 0.5774 0.0000 ( 48766 PWs)   bands (ev):

   -61.4628 -61.4589 -61.4509 -61.4251 -35.7481 -35.7212 -35.6802 -35.6727
   -35.6632 -35.6482 -35.6252 -35.6185 -35.6076 -35.5555 -35.5475 -35.4760
   -22.8112 -14.3823 -14.2065 -13.7968 -13.6791 -13.5145 -13.1689 -13.1280
    -5.9896  -5.7349  -5.6717  -5.6456  -5.6001  -5.1858  -5.0927  -4.9849
    -4.6327  -4.5755  -4.4200  -4.4047  -4.3167  -4.1340  -4.0300  -3.6282
    -3.5335  -3.1865  -3.1291  -2.7653  -2.4436  -2.3001  -2.2051  -1.8283
    -1.7020  -1.6137  -1.4171  -0.9378   0.1154   0.2634   0.8030   0.9921
     1.1013   1.2767   1.5766   1.6049   1.7016   1.7865   2.0027   2.2152

          k = 0.3000 0.5196 0.0000 ( 48786 PWs)   bands (ev):

   -61.4621 -61.4591 -61.4513 -61.4251 -35.7387 -35.7173 -35.6912 -35.6724
   -35.6608 -35.6524 -35.6246 -35.6187 -35.6033 -35.5551 -35.5514 -35.4784
   -22.8111 -14.3501 -14.1418 -13.9291 -13.6476 -13.5502 -13.1592 -13.1071
    -6.0288  -5.6418  -5.6305  -5.5772  -5.5706  -5.1968  -5.0816  -4.9070
    -4.6899  -4.5832  -4.5491  -4.4151  -4.2788  -4.1023  -3.9340  -3.8165
    -3.6615  -3.1930  -3.1297  -2.6892  -2.5642  -2.2543  -2.1584  -1.7879
    -1.7002  -1.5938  -1.4226  -0.8593   0.0977   0.2251   0.8297   0.9253
     1.0676   1.2072   1.5462   1.5744   1.6412   1.7230   1.9833   2.2608

     the Fermi energy is     0.2185 ev

!    total energy              =    -909.31534739 Ry
     Harris-Foulkes estimate   =    -909.31534740 Ry
     estimated scf accuracy    <          4.0E-09 Ry

     The total energy is the sum of the following terms:

     one-electron contribution =   -4308.03438627 Ry
     hartree contribution      =    2159.06576052 Ry
     xc contribution           =    -291.25583784 Ry
     ewald contribution        =    1530.91381163 Ry
     smearing contrib. (-TS)   =      -0.00469544 Ry

     convergence has been achieved in  14 iterations

     negative rho (up, down):  1.234E-04 0.000E+00

     Forces acting on atoms (Ry/au):

     atom    1 type  1   force =     0.00000000    0.03892673    0.01340586
     atom    2 type  1   force =     0.03371154   -0.01946336    0.01340586
     atom    3 type  1   force =     0.00000000    0.00000000    0.00223911
     atom    4 type  1   force =    -0.03371154   -0.01946336    0.01340586
     atom    5 type  2   force =    -0.00035903   -0.00020729    0.00914889
     atom    6 type  3   force =     0.00000000    0.00000000   -0.06972614
     atom    7 type  2   force =     0.00035903   -0.00020729    0.00914889
     atom    8 type  2   force =    -0.00000000    0.00041457    0.00914889
     atom    9 type  2   force =    -0.01484260   -0.00856938   -0.00247599
     atom   10 type  2   force =     0.00000000    0.00000000    0.00725072
     atom   11 type  2   force =     0.01484260   -0.00856938   -0.00247599
     atom   12 type  2   force =     0.00000000    0.01713876   -0.00247599

     Total force =     0.105620     Total SCF correction =     0.000344


     entering subroutine stress ...


     negative rho (up, down):  1.234E-04 0.000E+00
          total   stress  (Ry/bohr**3)                   (kbar)     P=   -9.57
  -0.00008379   0.00000000  -0.00000000        -12.33      0.00     -0.00
   0.00000000  -0.00008379  -0.00000000          0.00    -12.33     -0.00
  -0.00000000  -0.00000000  -0.00002758         -0.00     -0.00     -4.06


     BFGS Geometry Optimization

     number of scf cycles    =   1
     number of bfgs steps    =   0

     energy   new            =    -909.3153473930 Ry

     new trust radius        =       0.0697261429 bohr
     new conv_thr            =       0.0000000100 Ry


ATOMIC_POSITIONS (angstrom)
Mo       0.000000000   1.895684137   3.191002077
Mo      -1.606031624   4.677412431   3.191002077
Mo       3.247742000   1.875085000   3.185092887
Mo       1.606031624   4.677412431   3.191002077
Se       1.623681010   0.937432309   4.831645386
F        0.000000000   3.750169000   4.789906514
Se       4.871802990   0.937432309   4.831645386
Se       3.247742000   3.750388382   4.831645386
Se       1.616016634   0.933007280   1.539701765
Se       0.000000000   3.750169000   1.544848917
Se       4.879467366   0.933007280   1.539701765
Se       3.247742000   3.759238441   1.539701765



     Writing output data file mose2_f.save
     Check: negative starting charge=   -0.000798
     NEW-OLD atomic charge density approx. for the potential
     Check: negative starting charge=   -0.000788

     negative rho (up, down):  2.840E-04 0.000E+00

     total cpu time spent up to now is     1130.9 secs

     per-process dynamical memory:   131.1 Mb

     Self-consistent Calculation

     iteration #  1     ecut=    70.00 Ry     beta=0.70
     CG style diagonalization
     c_bands:  4 eigenvalues not converged
     ethr =  1.00E-06,  avg # of iterations = 15.9

     negative rho (up, down):  1.446E-04 0.000E+00

     total cpu time spent up to now is     1426.2 secs

     total energy              =    -909.32481891 Ry
     Harris-Foulkes estimate   =    -909.32551511 Ry
     estimated scf accuracy    <       0.00098016 Ry

     iteration #  2     ecut=    70.00 Ry     beta=0.70
     CG style diagonalization
     ethr =  9.33E-07,  avg # of iterations =  3.8

     negative rho (up, down):  1.287E-04 0.000E+00

     total cpu time spent up to now is     1487.9 secs

     total energy              =    -909.32444934 Ry
     Harris-Foulkes estimate   =    -909.32569567 Ry
     estimated scf accuracy    <       0.00337198 Ry

     iteration #  3     ecut=    70.00 Ry     beta=0.70
     CG style diagonalization
     ethr =  9.33E-07,  avg # of iterations =  3.7

     negative rho (up, down):  1.267E-04 0.000E+00

     total cpu time spent up to now is     1547.6 secs

     total energy              =    -909.32492805 Ry
     Harris-Foulkes estimate   =    -909.32545561 Ry
     estimated scf accuracy    <       0.00223923 Ry

     iteration #  4     ecut=    70.00 Ry     beta=0.70
     CG style diagonalization
     ethr =  9.33E-07,  avg # of iterations =  3.3

     negative rho (up, down):  1.238E-04 0.000E+00

     total cpu time spent up to now is     1599.7 secs

     total energy              =    -909.32517240 Ry
     Harris-Foulkes estimate   =    -909.32522746 Ry
     estimated scf accuracy    <       0.00014191 Ry

     iteration #  5     ecut=    70.00 Ry     beta=0.70
     CG style diagonalization
     ethr =  1.35E-07,  avg # of iterations =  3.5

     negative rho (up, down):  1.233E-04 0.000E+00

     total cpu time spent up to now is     1657.3 secs

     total energy              =    -909.32519620 Ry
     Harris-Foulkes estimate   =    -909.32522969 Ry
     estimated scf accuracy    <       0.00011468 Ry

     iteration #  6     ecut=    70.00 Ry     beta=0.70
     CG style diagonalization
     ethr =  1.09E-07,  avg # of iterations =  3.2

     negative rho (up, down):  1.230E-04 0.000E+00

     total cpu time spent up to now is     1707.9 secs

     total energy              =    -909.32521114 Ry
     Harris-Foulkes estimate   =    -909.32521252 Ry
     estimated scf accuracy    <       0.00000287 Ry

     iteration #  7     ecut=    70.00 Ry     beta=0.70
     CG style diagonalization
     ethr =  2.73E-09,  avg # of iterations =  4.2

     negative rho (up, down):  1.230E-04 0.000E+00

     total cpu time spent up to now is     1778.0 secs

     total energy              =    -909.32521294 Ry
     Harris-Foulkes estimate   =    -909.32521330 Ry
     estimated scf accuracy    <       0.00000082 Ry

     iteration #  8     ecut=    70.00 Ry     beta=0.70
     CG style diagonalization
     ethr =  7.80E-10,  avg # of iterations =  3.9

     negative rho (up, down):  1.230E-04 0.000E+00

     total cpu time spent up to now is     1842.7 secs

     total energy              =    -909.32521317 Ry
     Harris-Foulkes estimate   =    -909.32521332 Ry
     estimated scf accuracy    <       0.00000057 Ry

     iteration #  9     ecut=    70.00 Ry     beta=0.70
     CG style diagonalization
     ethr =  5.41E-10,  avg # of iterations =  3.4

     negative rho (up, down):  1.230E-04 0.000E+00

     total cpu time spent up to now is     1897.4 secs

     total energy              =    -909.32521325 Ry
     Harris-Foulkes estimate   =    -909.32521330 Ry
     estimated scf accuracy    <       0.00000019 Ry

     iteration # 10     ecut=    70.00 Ry     beta=0.70
     CG style diagonalization
     ethr =  1.79E-10,  avg # of iterations =  3.4

     negative rho (up, down):  1.230E-04 0.000E+00

     total cpu time spent up to now is     1952.9 secs

     End of self-consistent calculation

          k = 0.0000 0.0000 0.0000 ( 48761 PWs)   bands (ev):

   -61.4634 -61.4380 -61.4380 -61.4147 -35.8011 -35.8011 -35.7218 -35.6822
   -35.6298 -35.6298 -35.6109 -35.5864 -35.5259 -35.5259 -35.4452 -35.4451
   -23.0510 -15.0909 -13.9815 -13.3705 -13.3704 -13.2743 -13.1233 -13.1233
    -6.7369  -6.5553  -6.5553  -6.3999  -5.8193  -5.7819  -5.7819  -5.3142
    -4.7690  -4.7690  -4.2662  -4.2662  -3.7498  -3.5697  -3.1939  -3.1939
    -2.7473  -2.7223  -2.7223  -2.3915  -2.3915  -1.7157  -1.7146  -1.7146
    -1.3945  -1.3944  -1.3225  -1.0907   0.9275   0.9275   1.0839   1.3558
     1.3559   1.3595   1.8258   1.8551   1.8551   2.4112   2.4113   2.9662

          k = 0.0000 0.1155 0.0000 ( 48801 PWs)   bands (ev):

   -61.4627 -61.4385 -61.4380 -61.4149 -35.7970 -35.7949 -35.7175 -35.6800
   -35.6309 -35.6298 -35.6114 -35.5889 -35.5308 -35.5265 -35.4519 -35.4464
   -23.0509 -15.0578 -13.9669 -13.4157 -13.3733 -13.2871 -13.1466 -13.1227
    -6.6708  -6.5049  -6.4913  -6.3576  -5.7979  -5.7753  -5.7361  -5.3111
    -4.7554  -4.7498  -4.2812  -4.2603  -3.7427  -3.5819  -3.2792  -3.1698
    -2.8546  -2.7401  -2.7060  -2.4137  -2.4096  -1.8323  -1.8167  -1.6775
    -1.5755  -1.3995  -1.2166  -1.1007   0.8418   0.8505   1.0705   1.3279
     1.3514   1.4637   1.7266   1.8506   1.9363   2.2583   2.4197   2.9308

          k = 0.0000 0.2309 0.0000 ( 48770 PWs)   bands (ev):

   -61.4609 -61.4399 -61.4380 -61.4154 -35.7853 -35.7775 -35.7054 -35.6729
   -35.6344 -35.6299 -35.6125 -35.5967 -35.5449 -35.5273 -35.4711 -35.4498
   -23.0505 -14.9604 -13.9256 -13.5592 -13.3806 -13.3068 -13.2079 -13.1209
    -6.4946  -6.3649  -6.3107  -6.2329  -5.7648  -5.7565  -5.5844  -5.2942
    -4.7236  -4.6934  -4.3326  -4.2478  -3.7565  -3.6121  -3.4741  -3.1054
    -3.1048  -2.8111  -2.6622  -2.5329  -2.4646  -2.1958  -1.9133  -1.7379
    -1.7210  -1.3908  -1.1827  -1.1346   0.6410   0.6973   1.0002   1.3313
     1.3378   1.5938   1.6241   1.8409   1.9196   2.0309   2.4522   2.7083

          k = 0.0000 0.3464 0.0000 ( 48772 PWs)   bands (ev):

   -61.4580 -61.4422 -61.4380 -61.4159 -35.7686 -35.7524 -35.6892 -35.6596
   -35.6403 -35.6303 -35.6137 -35.6097 -35.5662 -35.5266 -35.4992 -35.4544
   -23.0500 -14.8045 -13.8850 -13.7524 -13.3897 -13.3494 -13.2710 -13.1187
    -6.2567  -6.1721  -6.0915  -6.0115  -5.7291  -5.7164  -5.4225  -5.2028
    -4.6941  -4.6051  -4.4209  -4.2389  -3.9048  -3.6660  -3.6389  -3.4267
    -3.0285  -2.9541  -2.7864  -2.6092  -2.5329  -2.4565  -2.0048  -1.8912
    -1.7827  -1.3854  -1.2050  -1.1974   0.4202   0.5500   0.8999   1.2673
     1.3318   1.5256   1.6832   1.7049   1.8357   2.0447   2.3528   2.4574

          k = 0.0000 0.4619 0.0000 ( 48764 PWs)   bands (ev):

   -61.4548 -61.4451 -61.4380 -61.4163 -35.7521 -35.7273 -35.6737 -35.6491
   -35.6377 -35.6322 -35.6225 -35.6146 -35.5906 -35.5290 -35.5250 -35.4584
   -23.0496 -14.6029 -14.0601 -13.7494 -13.4370 -13.3970 -13.2928 -13.1168
    -6.0189  -5.9970  -5.9224  -5.7785  -5.6997  -5.6520  -5.3461  -5.0350
    -4.6473  -4.5081  -4.4768  -4.2255  -4.1324  -3.9444  -3.7249  -3.6322
    -3.2437  -3.0221  -2.9152  -2.5997  -2.5787  -2.3847  -2.0878  -2.0476
    -1.7820  -1.4709  -1.2450  -1.2396   0.2644   0.4521   0.8043   1.1857
     1.3247   1.3837   1.7145   1.7400   1.8348   1.9487   2.1138   2.2481

          k = 0.0000-0.5774 0.0000 ( 48748 PWs)   bands (ev):

   -61.4527 -61.4470 -61.4380 -61.4165 -35.7445 -35.7156 -35.6634 -35.6560
   -35.6357 -35.6260 -35.6177 -35.6159 -35.6098 -35.5441 -35.5241 -35.4601
   -23.0495 -14.4339 -14.2445 -13.7041 -13.4924 -13.3998 -13.2974 -13.1161
    -5.9265  -5.8985  -5.8580  -5.7001  -5.6841  -5.6171  -5.2801  -5.0308
    -4.5239  -4.4651  -4.4052  -4.3135  -4.2020  -4.1643  -3.8581  -3.5524
    -3.5150  -3.0256  -2.8834  -2.6111  -2.5788  -2.2838  -2.1603  -2.1376
    -1.6752  -1.6223  -1.2551  -1.2524   0.2106   0.4195   0.7636   1.1500
     1.3204   1.3411   1.7147   1.7958   1.8325   1.9086   1.9868   2.1668

          k = 0.1000 0.1732 0.0000 ( 48791 PWs)   bands (ev):

   -61.4615 -61.4394 -61.4381 -61.4152 -35.7890 -35.7831 -35.7093 -35.6754
   -35.6330 -35.6301 -35.6121 -35.5943 -35.5392 -35.5280 -35.4647 -35.4489
   -23.0506 -14.9925 -13.9386 -13.4897 -13.4226 -13.2789 -13.1899 -13.1212
    -6.5508  -6.4021  -6.3743  -6.2747  -5.8196  -5.6850  -5.6641  -5.3021
    -4.7310  -4.7140  -4.3068  -4.2595  -3.7408  -3.6092  -3.4145  -3.1359
    -3.0260  -2.7797  -2.6743  -2.5125  -2.4358  -2.0395  -1.9246  -1.7873
    -1.6075  -1.4097  -1.1762  -1.1224   0.6858   0.7551   1.0320   1.3044
     1.3700   1.5454   1.6306   1.8454   2.0139   2.0252   2.4400   2.8133

          k = 0.1000 0.2887 0.0000 ( 48778 PWs)   bands (ev):

   -61.4591 -61.4412 -61.4382 -61.4157 -35.7745 -35.7616 -35.6953 -35.6652
   -35.6374 -35.6309 -35.6131 -35.6063 -35.5544 -35.5295 -35.4878 -35.4534
   -23.0502 -14.8657 -13.8885 -13.6544 -13.4865 -13.2736 -13.2462 -13.1184
    -6.3474  -6.2231  -6.1663  -6.1110  -5.8414  -5.5991  -5.4871  -5.2609
    -4.6985  -4.6469  -4.3678  -4.2720  -3.7988  -3.6781  -3.5735  -3.3171
    -3.1161  -2.8919  -2.6562  -2.5869  -2.4948  -2.3899  -2.0923  -1.8353
    -1.6692  -1.4125  -1.1794  -1.1483   0.4746   0.6153   0.9572   1.2361
     1.3815   1.5322   1.5998   1.7331   1.8427   2.1093   2.4353   2.5065

          k = 0.1000 0.4041 0.0000 ( 48753 PWs)   bands (ev):

   -61.4560 -61.4437 -61.4383 -61.4162 -35.7566 -35.7356 -35.6800 -35.6489
   -35.6435 -35.6325 -35.6226 -35.6137 -35.5748 -35.5295 -35.5154 -35.4583
   -23.0498 -14.6857 -13.9290 -13.7749 -13.5339 -13.3608 -13.2299 -13.1152
    -6.1073  -6.0304  -5.9706  -5.8776  -5.8331  -5.5048  -5.3719  -5.1008
    -4.6732  -4.5576  -4.4785  -4.2755  -3.9919  -3.8167  -3.7061  -3.6062
    -3.1816  -3.0030  -2.8655  -2.6350  -2.5382  -2.4253  -2.1584  -1.9127
    -1.7287  -1.4482  -1.2741  -1.1214   0.2996   0.4822   0.8670   1.1534
     1.2986   1.4414   1.5994   1.6818   1.8180   2.0673   2.1907   2.3127

          k = 0.1000 0.5196 0.0000 ( 48763 PWs)   bands (ev):

   -61.4530 -61.4464 -61.4384 -61.4165 -35.7425 -35.7151 -35.6665 -35.6530
   -35.6428 -35.6319 -35.6218 -35.6140 -35.5970 -35.5404 -35.5262 -35.4616
   -23.0495 -14.4756 -14.1610 -13.7095 -13.5798 -13.4284 -13.2201 -13.1131
    -5.9355  -5.9027  -5.8563  -5.8108  -5.6737  -5.4457  -5.2823  -5.0233
    -4.5964  -4.4927  -4.4444  -4.2879  -4.2150  -4.0792  -3.9415  -3.5911
    -3.3005  -3.1619  -2.9660  -2.7161  -2.4453  -2.3096  -2.1988  -1.9897
    -1.7062  -1.5664  -1.3477  -1.0983   0.2069   0.4035   0.8034   1.0970
     1.2156   1.3896   1.6234   1.6920   1.8242   1.9377   2.0385   2.1763

          k = 0.2000 0.3464 0.0000 ( 48776 PWs)   bands (ev):

   -61.4565 -61.4430 -61.4386 -61.4161 -35.7578 -35.7386 -35.6827 -35.6516
   -35.6423 -35.6333 -35.6245 -35.6131 -35.5650 -35.5340 -35.5096 -35.4590
   -23.0498 -14.7141 -13.8376 -13.7821 -13.6307 -13.3477 -13.1941 -13.1126
    -6.1421  -6.0315  -5.9650  -5.9367  -5.8967  -5.4090  -5.3837  -5.1502
    -4.6719  -4.5887  -4.4611  -4.3258  -3.8538  -3.8342  -3.7157  -3.5852
    -3.2677  -2.9786  -2.8121  -2.5507  -2.5020  -2.3861  -2.3669  -1.8263
    -1.6697  -1.4606  -1.2595  -1.0637   0.3050   0.5002   0.9110   1.1065
     1.2970   1.4388   1.5412   1.6272   1.7988   2.1339   2.2262   2.3320

          k = 0.2000 0.4619 0.0000 ( 48790 PWs)   bands (ev):

   -61.4534 -61.4453 -61.4391 -61.4164 -35.7387 -35.7147 -35.6705 -35.6537
   -35.6455 -35.6375 -35.6276 -35.6129 -35.5817 -35.5386 -35.5270 -35.4644
   -23.0495 -14.5177 -14.0038 -13.7914 -13.6735 -13.4364 -13.1600 -13.1035
    -6.0117  -5.8701  -5.8639  -5.7804  -5.7124  -5.3299  -5.2481  -4.9830
    -4.6504  -4.5943  -4.5292  -4.3381  -4.1225  -3.9877  -3.8914  -3.6851
    -3.3900  -3.0916  -3.0547  -2.6659  -2.4445  -2.3498  -2.2532  -1.8225
    -1.6932  -1.5299  -1.3584  -0.9704   0.1980   0.3851   0.8621   0.9928
     1.1665   1.3399   1.5540   1.6127   1.7245   1.9164   2.0999   2.2367

          k = 0.2000 0.5774 0.0000 ( 48766 PWs)   bands (ev):

   -61.4515 -61.4470 -61.4393 -61.4165 -35.7284 -35.7025 -35.6656 -35.6612
   -35.6541 -35.6374 -35.6138 -35.6114 -35.5980 -35.5441 -35.5304 -35.4667
   -23.0494 -14.3471 -14.1879 -13.7855 -13.6565 -13.4860 -13.1505 -13.0981
    -6.0158  -5.7952  -5.7866  -5.6773  -5.6172  -5.3066  -5.1288  -5.0501
    -4.6317  -4.5500  -4.4133  -4.4008  -4.3014  -4.0920  -4.0157  -3.6405
    -3.4813  -3.1733  -3.1193  -2.7415  -2.4019  -2.2721  -2.2027  -1.8239
    -1.6929  -1.5976  -1.3994  -0.9290   0.1637   0.3356   0.8422   0.9484
     1.1085   1.3096   1.5668   1.6199   1.7071   1.7902   2.0182   2.2360

          k = 0.3000 0.5196 0.0000 ( 48786 PWs)   bands (ev):

   -61.4509 -61.4471 -61.4398 -61.4165 -35.7183 -35.6976 -35.6774 -35.6613
   -35.6523 -35.6411 -35.6140 -35.6114 -35.5944 -35.5445 -35.5322 -35.4694
   -23.0493 -14.3182 -14.1079 -13.9303 -13.6251 -13.5215 -13.1351 -13.0823
    -6.0568  -5.7752  -5.7158  -5.6225  -5.5545  -5.2576  -5.1592  -4.9788
    -4.6765  -4.5608  -4.5491  -4.4075  -4.2715  -4.0526  -3.9101  -3.7870
    -3.6518  -3.1793  -3.1248  -2.6564  -2.5263  -2.2251  -2.1624  -1.7804
    -1.6921  -1.5760  -1.4087  -0.8486   0.1480   0.3010   0.8572   0.8729
     1.0869   1.2475   1.5517   1.5804   1.6415   1.7289   1.9979   2.2806

     the Fermi energy is     0.2760 ev

!    total energy              =    -909.32521329 Ry
     Harris-Foulkes estimate   =    -909.32521329 Ry
     estimated scf accuracy    <          2.4E-09 Ry

     The total energy is the sum of the following terms:

     one-electron contribution =   -4312.12508614 Ry
     hartree contribution      =    2161.10138479 Ry
     xc contribution           =    -291.24053385 Ry
     ewald contribution        =    1532.94344513 Ry
     smearing contrib. (-TS)   =      -0.00442322 Ry

     convergence has been achieved in  10 iterations

     negative rho (up, down):  1.230E-04 0.000E+00

     Forces acting on atoms (Ry/au):

     atom    1 type  1   force =     0.00000000    0.02565104    0.00926961
     atom    2 type  1   force =     0.02221445   -0.01282552    0.00926961
     atom    3 type  1   force =     0.00000000    0.00000000   -0.00228215
     atom    4 type  1   force =    -0.02221445   -0.01282552    0.00926961
     atom    5 type  2   force =     0.00082307    0.00047520    0.00722709
     atom    6 type  3   force =     0.00000000    0.00000000   -0.06204553
     atom    7 type  2   force =    -0.00082307    0.00047520    0.00722709
     atom    8 type  2   force =    -0.00000000   -0.00095040    0.00722709
     atom    9 type  2   force =    -0.01233582   -0.00712209    0.00562571
     atom   10 type  2   force =     0.00000000    0.00000000   -0.00203952
     atom   11 type  2   force =     0.01233582   -0.00712209    0.00562571
     atom   12 type  2   force =     0.00000000    0.01424418    0.00562571

     Total force =     0.083389     Total SCF correction =     0.000156


     entering subroutine stress ...


     negative rho (up, down):  1.230E-04 0.000E+00
          total   stress  (Ry/bohr**3)                   (kbar)     P=  -10.63
  -0.00009094   0.00000000   0.00000000        -13.38      0.00      0.00
   0.00000000  -0.00009094   0.00000000          0.00    -13.38      0.00
  -0.00000000  -0.00000000  -0.00003488         -0.00     -0.00     -5.13


     number of scf cycles    =   2
     number of bfgs steps    =   1

     energy   old            =    -909.3153473930 Ry
     energy   new            =    -909.3252132922 Ry

     CASE: energy  _new < energy  _old

     new trust radius        =       0.0766987572 bohr
     new conv_thr            =       0.0000000062 Ry


ATOMIC_POSITIONS (angstrom)
Mo      -0.000000000   1.913298372   3.197312760
Mo      -1.590777249   4.668605314   3.197312760
Mo       3.247742000   1.875085000   3.183996928
Mo       1.590777249   4.668605314   3.197312760
Se       1.624113333   0.937681911   4.836457874
F        0.000000000   3.750169000   4.749319280
Se       4.871370667   0.937681911   4.836457874
Se       3.247742000   3.749889178   4.836457874
Se       1.607866177   0.928301611   1.542654887
Se       0.000000000   3.750169000   1.544303229
Se       4.887617823   0.928301611   1.542654887
Se       3.247742000   3.768649778   1.542654887



     Writing output data file mose2_f.save
     Check: negative starting charge=   -0.000788
     NEW-OLD atomic charge density approx. for the potential
     Check: negative starting charge=   -0.000783

     negative rho (up, down):  2.536E-04 0.000E+00

     total cpu time spent up to now is     1984.3 secs

     per-process dynamical memory:   131.1 Mb

     Self-consistent Calculation

     iteration #  1     ecut=    70.00 Ry     beta=0.70
     CG style diagonalization
     c_bands:  4 eigenvalues not converged
     ethr =  1.00E-06,  avg # of iterations = 14.8

     negative rho (up, down):  1.397E-04 0.000E+00

     total cpu time spent up to now is     2259.6 secs

     total energy              =    -909.33266553 Ry
     Harris-Foulkes estimate   =    -909.33320756 Ry
     estimated scf accuracy    <       0.00077615 Ry

     iteration #  2     ecut=    70.00 Ry     beta=0.70
     CG style diagonalization
     ethr =  7.39E-07,  avg # of iterations =  3.7

     negative rho (up, down):  1.283E-04 0.000E+00

     total cpu time spent up to now is     2320.9 secs

     total energy              =    -909.33238760 Ry
     Harris-Foulkes estimate   =    -909.33332311 Ry
     estimated scf accuracy    <       0.00248772 Ry

     iteration #  3     ecut=    70.00 Ry     beta=0.70
     CG style diagonalization
     ethr =  7.39E-07,  avg # of iterations =  3.6

     negative rho (up, down):  1.262E-04 0.000E+00

     total cpu time spent up to now is     2380.7 secs

     total energy              =    -909.33275006 Ry
     Harris-Foulkes estimate   =    -909.33311633 Ry
     estimated scf accuracy    <       0.00142625 Ry

     iteration #  4     ecut=    70.00 Ry     beta=0.70
     CG style diagonalization
     ethr =  7.39E-07,  avg # of iterations =  3.3

     negative rho (up, down):  1.236E-04 0.000E+00

     total cpu time spent up to now is     2433.6 secs

     total energy              =    -909.33290598 Ry
     Harris-Foulkes estimate   =    -909.33298653 Ry
     estimated scf accuracy    <       0.00024951 Ry

     iteration #  5     ecut=    70.00 Ry     beta=0.70
     CG style diagonalization
     ethr =  2.38E-07,  avg # of iterations =  3.3

     negative rho (up, down):  1.228E-04 0.000E+00

     total cpu time spent up to now is     2487.6 secs

     total energy              =    -909.33294084 Ry
     Harris-Foulkes estimate   =    -909.33297489 Ry
     estimated scf accuracy    <       0.00011893 Ry

     iteration #  6     ecut=    70.00 Ry     beta=0.70
     CG style diagonalization
     ethr =  1.13E-07,  avg # of iterations =  3.2

     negative rho (up, down):  1.227E-04 0.000E+00

     total cpu time spent up to now is     2539.1 secs

     total energy              =    -909.33295627 Ry
     Harris-Foulkes estimate   =    -909.33295977 Ry
     estimated scf accuracy    <       0.00000974 Ry

     iteration #  7     ecut=    70.00 Ry     beta=0.70
     CG style diagonalization
     ethr =  9.28E-09,  avg # of iterations =  3.4

     negative rho (up, down):  1.225E-04 0.000E+00

     total cpu time spent up to now is     2594.4 secs

     total energy              =    -909.33295866 Ry
     Harris-Foulkes estimate   =    -909.33295931 Ry
     estimated scf accuracy    <       0.00000182 Ry

     iteration #  8     ecut=    70.00 Ry     beta=0.70
     CG style diagonalization
     ethr =  1.73E-09,  avg # of iterations =  3.8

     negative rho (up, down):  1.225E-04 0.000E+00

     total cpu time spent up to now is     2658.0 secs

     total energy              =    -909.33295932 Ry
     Harris-Foulkes estimate   =    -909.33295949 Ry
     estimated scf accuracy    <       0.00000050 Ry

     iteration #  9     ecut=    70.00 Ry     beta=0.70
     CG style diagonalization
     ethr =  4.78E-10,  avg # of iterations =  3.8

     negative rho (up, down):  1.225E-04 0.000E+00

     total cpu time spent up to now is     2721.2 secs

     total energy              =    -909.33295948 Ry
     Harris-Foulkes estimate   =    -909.33295949 Ry
     estimated scf accuracy    <       0.00000004 Ry

     iteration # 10     ecut=    70.00 Ry     beta=0.70
     CG style diagonalization
     ethr =  3.88E-11,  avg # of iterations =  5.4

     negative rho (up, down):  1.225E-04 0.000E+00

     total cpu time spent up to now is     2816.3 secs

     End of self-consistent calculation

          k = 0.0000 0.0000 0.0000 ( 48761 PWs)   bands (ev):

   -61.4535 -61.4275 -61.4275 -61.4057 -35.7860 -35.7860 -35.7221 -35.6734
   -35.6212 -35.6212 -35.5994 -35.5698 -35.5144 -35.5144 -35.4360 -35.4359
   -23.3089 -15.0705 -13.9665 -13.3464 -13.3464 -13.2818 -13.0925 -13.0925
    -6.7347  -6.6018  -6.6017  -6.4461  -5.8954  -5.8954  -5.8144  -5.4001
    -4.7677  -4.7677  -4.3369  -4.3369  -3.7611  -3.5318  -3.1780  -3.1780
    -2.7353  -2.6804  -2.6804  -2.3686  -2.3685  -1.7053  -1.6904  -1.6904
    -1.3838  -1.3838  -1.3434  -1.0786   0.9945   0.9946   1.1700   1.3422
     1.3422   1.4106   1.8444   1.8614   1.8614   2.4081   2.4085   2.9126

          k = 0.0000 0.1155 0.0000 ( 48801 PWs)   bands (ev):

   -61.4528 -61.4280 -61.4275 -61.4059 -35.7818 -35.7799 -35.7176 -35.6713
   -35.6223 -35.6212 -35.5999 -35.5723 -35.5192 -35.5149 -35.4427 -35.4372
   -23.3088 -15.0374 -13.9517 -13.3933 -13.3492 -13.2930 -13.1159 -13.0918
    -6.6703  -6.5549  -6.5405  -6.4059  -5.8875  -5.8694  -5.7736  -5.3957
    -4.7537  -4.7473  -4.3477  -4.3275  -3.7542  -3.5472  -3.2605  -3.1526
    -2.8342  -2.7049  -2.6654  -2.3923  -2.3883  -1.8126  -1.8060  -1.6592
    -1.5618  -1.3831  -1.2353  -1.0879   0.9113   0.9148   1.1397   1.3249
     1.3435   1.5057   1.7331   1.8557   1.9593   2.2579   2.4197   2.8813

          k = 0.0000 0.2309 0.0000 ( 48770 PWs)   bands (ev):

   -61.4510 -61.4294 -61.4275 -61.4063 -35.7701 -35.7626 -35.7051 -35.6649
   -35.6259 -35.6213 -35.6010 -35.5805 -35.5331 -35.5154 -35.4619 -35.4407
   -23.3084 -14.9401 -13.9101 -13.5401 -13.3565 -13.3091 -13.1784 -13.0901
    -6.5014  -6.4269  -6.3727  -6.2835  -5.8629  -5.8204  -5.6438  -5.3658
    -4.7212  -4.6883  -4.3874  -4.3030  -3.7678  -3.5880  -3.4487  -3.0848
    -3.0751  -2.7902  -2.6254  -2.5107  -2.4476  -2.1761  -1.9007  -1.7131
    -1.7112  -1.3649  -1.2100  -1.1175   0.7058   0.7578   1.0489   1.3251
     1.3339   1.6322   1.6411   1.8420   1.9202   2.0608   2.4619   2.7049

          k = 0.0000 0.3464 0.0000 ( 48772 PWs)   bands (ev):

   -61.4482 -61.4317 -61.4275 -61.4069 -35.7532 -35.7381 -35.6870 -35.6532
   -35.6318 -35.6217 -35.6022 -35.5941 -35.5543 -35.5142 -35.4897 -35.4455
   -23.3078 -14.7843 -13.8704 -13.7331 -13.3656 -13.3429 -13.2500 -13.0879
    -6.2815  -6.2599  -6.1825  -6.0640  -5.8191  -5.7527  -5.5095  -5.2418
    -4.6910  -4.5988  -4.4558  -4.2712  -3.9065  -3.6390  -3.6339  -3.3943
    -3.0018  -2.9495  -2.7651  -2.5825  -2.4989  -2.4438  -1.9882  -1.8617
    -1.7773  -1.3648  -1.2396  -1.1628   0.4761   0.6084   0.9439   1.2598
     1.3240   1.5228   1.7161   1.7349   1.8308   2.0623   2.3525   2.4834

          k = 0.0000 0.4619 0.0000 ( 48764 PWs)   bands (ev):

   -61.4451 -61.4344 -61.4275 -61.4073 -35.7363 -35.7144 -35.6682 -35.6402
   -35.6336 -35.6230 -35.6080 -35.6033 -35.5798 -35.5180 -35.5121 -35.4497
   -23.3074 -14.5822 -14.0456 -13.7303 -13.4204 -13.3729 -13.2826 -13.0860
    -6.1256  -6.1069  -5.9936  -5.8719  -5.7581  -5.6512  -5.4141  -5.0851
    -4.6358  -4.5088  -4.4837  -4.2270  -4.1254  -3.9101  -3.7045  -3.6439
    -3.2238  -3.0185  -2.8738  -2.5736  -2.5715  -2.3604  -2.0712  -2.0143
    -1.7777  -1.4660  -1.2790  -1.1835   0.3123   0.5102   0.8499   1.1808
     1.3163   1.3687   1.7528   1.7610   1.8333   1.9517   2.1133   2.2540

          k = 0.0000-0.5774 0.0000 ( 48748 PWs)   bands (ev):

   -61.4433 -61.4361 -61.4275 -61.4074 -35.7285 -35.7041 -35.6568 -35.6463
   -35.6249 -35.6134 -35.6134 -35.6056 -35.6005 -35.5315 -35.5109 -35.4515
   -23.3073 -14.4088 -14.2341 -13.6847 -13.4742 -13.3757 -13.2893 -13.0853
    -6.0786  -6.0491  -5.8880  -5.8196  -5.7230  -5.5834  -5.3564  -5.0711
    -4.5214  -4.4730  -4.3941  -4.3134  -4.1880  -4.1095  -3.8485  -3.5742
    -3.4907  -3.0201  -2.8291  -2.6175  -2.5532  -2.2647  -2.1219  -2.1200
    -1.6762  -1.6147  -1.2962  -1.1837   0.2552   0.4778   0.8101   1.1479
     1.3118   1.3216   1.7540   1.8083   1.8381   1.9056   1.9856   2.1716

          k = 0.1000 0.1732 0.0000 ( 48791 PWs)   bands (ev):

   -61.4516 -61.4289 -61.4275 -61.4062 -35.7739 -35.7680 -35.7092 -35.6671
   -35.6245 -35.6215 -35.6006 -35.5779 -35.5274 -35.5164 -35.4555 -35.4398
   -23.3085 -14.9723 -13.9232 -13.4665 -13.4093 -13.2750 -13.1597 -13.0904
    -6.5558  -6.4602  -6.4290  -6.3260  -5.9000  -5.7977  -5.6913  -5.3800
    -4.7290  -4.7093  -4.3649  -4.3204  -3.7522  -3.5822  -3.3886  -3.1180
    -2.9971  -2.7552  -2.6364  -2.4923  -2.4161  -2.0247  -1.8996  -1.7830
    -1.5853  -1.3903  -1.1979  -1.1073   0.7505   0.8193   1.0862   1.2857
     1.3813   1.5798   1.6441   1.8497   2.0205   2.0488   2.4467   2.8135

          k = 0.1000 0.2887 0.0000 ( 48778 PWs)   bands (ev):

   -61.4493 -61.4306 -61.4277 -61.4067 -35.7593 -35.7467 -35.6941 -35.6581
   -35.6290 -35.6222 -35.6016 -35.5906 -35.5421 -35.5176 -35.4783 -35.4445
   -23.3080 -14.8455 -13.8731 -13.6340 -13.4739 -13.2552 -13.2272 -13.0876
    -6.3676  -6.3030  -6.2433  -6.1581  -5.9074  -5.6916  -5.5520  -5.3074
    -4.6959  -4.6386  -4.4135  -4.3169  -3.8051  -3.6650  -3.5417  -3.2821
    -3.0955  -2.8841  -2.6249  -2.5574  -2.4850  -2.3665  -2.0650  -1.8282
    -1.6504  -1.3975  -1.1915  -1.1338   0.5332   0.6779   1.0005   1.2152
     1.3945   1.5229   1.6466   1.7465   1.8484   2.1292   2.4430   2.5114

          k = 0.1000 0.4041 0.0000 ( 48753 PWs)   bands (ev):

   -61.4463 -61.4331 -61.4278 -61.4071 -35.7412 -35.7214 -35.6762 -35.6435
   -35.6355 -35.6234 -35.6081 -35.6024 -35.5628 -35.5177 -35.5043 -35.4496
   -23.3076 -14.6655 -13.9142 -13.7552 -13.5208 -13.3340 -13.2191 -13.0845
    -6.1651  -6.1533  -6.0606  -5.9576  -5.8433  -5.5810  -5.4379  -5.1331
    -4.6666  -4.5517  -4.4989  -4.2964  -3.9852  -3.7921  -3.6965  -3.5829
    -3.1616  -2.9880  -2.8449  -2.6164  -2.5161  -2.4016  -2.1308  -1.8997
    -1.7158  -1.4427  -1.2733  -1.1046   0.3514   0.5434   0.9087   1.1323
     1.3066   1.4331   1.6135   1.7228   1.8229   2.0701   2.1978   2.3147

          k = 0.1000 0.5196 0.0000 ( 48763 PWs)   bands (ev):

   -61.4435 -61.4355 -61.4279 -61.4074 -35.7267 -35.7026 -35.6602 -35.6439
   -35.6307 -35.6233 -35.6164 -35.6032 -35.5863 -35.5286 -35.5125 -35.4532
   -23.3073 -14.4535 -14.1472 -13.6905 -13.5659 -13.4027 -13.2091 -13.0825
    -6.0778  -6.0489  -5.9545  -5.8196  -5.7045  -5.5110  -5.3219  -5.0672
    -4.5962  -4.4894  -4.4352  -4.2766  -4.2150  -4.0379  -3.9232  -3.6046
    -3.2810  -3.1372  -2.9405  -2.7054  -2.4236  -2.2870  -2.1700  -1.9755
    -1.6993  -1.5613  -1.3474  -1.0734   0.2531   0.4641   0.8475   1.0778
     1.2171   1.3861   1.6335   1.7193   1.8281   1.9367   2.0515   2.1861

          k = 0.2000 0.3464 0.0000 ( 48776 PWs)   bands (ev):

   -61.4467 -61.4324 -61.4281 -61.4070 -35.7427 -35.7234 -35.6798 -35.6464
   -35.6338 -35.6243 -35.6098 -35.6019 -35.5523 -35.5226 -35.4985 -35.4505
   -23.3076 -14.6940 -13.8245 -13.7578 -13.6210 -13.3203 -13.1829 -13.0822
    -6.1892  -6.1613  -6.0801  -5.9929  -5.8949  -5.5228  -5.4389  -5.1603
    -4.6673  -4.5733  -4.4982  -4.3542  -3.8505  -3.8182  -3.7039  -3.5356
    -3.2517  -2.9687  -2.7945  -2.5296  -2.4832  -2.3622  -2.3368  -1.8153
    -1.6536  -1.4568  -1.2546  -1.0518   0.3593   0.5651   0.9476   1.0777
     1.3098   1.4446   1.5487   1.6717   1.8028   2.1302   2.2453   2.3260

          k = 0.2000 0.4619 0.0000 ( 48790 PWs)   bands (ev):

   -61.4438 -61.4345 -61.4286 -61.4073 -35.7235 -35.6999 -35.6657 -35.6435
   -35.6353 -35.6285 -35.6221 -35.6020 -35.5705 -35.5279 -35.5123 -35.4563
   -23.3073 -14.4970 -13.9857 -13.7797 -13.6565 -13.4100 -13.1468 -13.0747
    -6.1098  -6.0290  -6.0008  -5.8121  -5.7025  -5.4232  -5.2868  -5.0117
    -4.6463  -4.5931  -4.5103  -4.3512  -4.1084  -3.9712  -3.8683  -3.6630
    -3.3651  -3.0794  -3.0452  -2.6434  -2.4141  -2.3269  -2.2398  -1.8093
    -1.6830  -1.5242  -1.3556  -0.9511   0.2480   0.4505   0.8939   0.9601
     1.1804   1.3608   1.5507   1.6492   1.7274   1.9153   2.1069   2.2549

          k = 0.2000 0.5774 0.0000 ( 48766 PWs)   bands (ev):

   -61.4422 -61.4359 -61.4288 -61.4074 -35.7127 -35.6888 -35.6567 -35.6515
   -35.6444 -35.6278 -35.6118 -35.6025 -35.5861 -35.5321 -35.5149 -35.4588
   -23.3071 -14.3228 -14.1740 -13.7761 -13.6364 -13.4600 -13.1359 -13.0705
    -6.1125  -5.9928  -5.9424  -5.6643  -5.6296  -5.3929  -5.1453  -5.0915
    -4.6350  -4.5281  -4.4116  -4.3932  -4.2932  -4.0437  -4.0010  -3.6497
    -3.4392  -3.1608  -3.1090  -2.7210  -2.3704  -2.2448  -2.1965  -1.8114
    -1.6888  -1.5841  -1.3997  -0.9067   0.2112   0.4009   0.8765   0.9105
     1.1256   1.3343   1.5610   1.6414   1.7142   1.7949   2.0303   2.2539

          k = 0.3000 0.5196 0.0000 ( 48786 PWs)   bands (ev):

   -61.4417 -61.4358 -61.4294 -61.4074 -35.7024 -35.6817 -35.6664 -35.6550
   -35.6436 -35.6310 -35.6128 -35.6018 -35.5835 -35.5328 -35.5156 -35.4618
   -23.3071 -14.2963 -14.0828 -13.9296 -13.6060 -13.4946 -13.1164 -13.0588
    -6.1442  -5.9800  -5.9011  -5.6540  -5.5116  -5.3249  -5.1797  -5.0304
    -4.6651  -4.5610  -4.5361  -4.4019  -4.2587  -4.0083  -3.8948  -3.7576
    -3.6376  -3.1649  -3.1205  -2.6274  -2.5007  -2.1977  -2.1580  -1.7653
    -1.6903  -1.5606  -1.4111  -0.8265   0.1974   0.3689   0.8258   0.8814
     1.1175   1.2795   1.5435   1.6071   1.6438   1.7358   2.0089   2.2991

     the Fermi energy is     0.3306 ev

!    total energy              =    -909.33295954 Ry
     Harris-Foulkes estimate   =    -909.33295954 Ry
     estimated scf accuracy    <          2.3E-09 Ry

     The total energy is the sum of the following terms:

     one-electron contribution =   -4317.96339144 Ry
     hartree contribution      =    2164.00357780 Ry
     xc contribution           =    -291.23893790 Ry
     ewald contribution        =    1535.86999591 Ry
     smearing contrib. (-TS)   =      -0.00420392 Ry

     convergence has been achieved in  10 iterations

     negative rho (up, down):  1.225E-04 0.000E+00

     Forces acting on atoms (Ry/au):

     atom    1 type  1   force =     0.00000000    0.01556534    0.00607085
     atom    2 type  1   force =     0.01347998   -0.00778267    0.00607085
     atom    3 type  1   force =     0.00000000    0.00000000   -0.00256825
     atom    4 type  1   force =    -0.01347998   -0.00778267    0.00607085
     atom    5 type  2   force =     0.00181690    0.00104899    0.00543121
     atom    6 type  3   force =     0.00000000   -0.00000000   -0.05265324
     atom    7 type  2   force =    -0.00181690    0.00104899    0.00543121
     atom    8 type  2   force =    -0.00000000   -0.00209797    0.00543121
     atom    9 type  2   force =    -0.00986109   -0.00569330    0.00987291
     atom   10 type  2   force =     0.00000000    0.00000000   -0.00890342
     atom   11 type  2   force =     0.00986109   -0.00569330    0.00987291
     atom   12 type  2   force =    -0.00000000    0.01138660    0.00987291

     Total force =     0.066923     Total SCF correction =     0.000209


     entering subroutine stress ...


     negative rho (up, down):  1.225E-04 0.000E+00
          total   stress  (Ry/bohr**3)                   (kbar)     P=  -11.03
  -0.00009482   0.00000000   0.00000000        -13.95      0.00      0.00
   0.00000000  -0.00009482   0.00000000          0.00    -13.95      0.00
  -0.00000000  -0.00000000  -0.00003524         -0.00     -0.00     -5.18


     number of scf cycles    =   3
     number of bfgs steps    =   2

     energy   old            =    -909.3252132922 Ry
     energy   new            =    -909.3329595395 Ry

     CASE: energy  _new < energy  _old

     new trust radius        =       0.1150481357 bohr
     new conv_thr            =       0.0000000053 Ry


ATOMIC_POSITIONS (angstrom)
Mo      -0.000000000   1.935121871   3.205452597
Mo      -1.571877545   4.657693565   3.205452597
Mo       3.247742000   1.875085000   3.182162986
Mo       1.571877545   4.657693565   3.205452597
Se       1.625630447   0.938557817   4.843147815
F        0.000000000   3.750169000   4.688438429
Se       4.869853553   0.938557817   4.843147815
Se       3.247742000   3.748137365   4.843147815
Se       1.596091396   0.921503438   1.550827641
Se       0.000000000   3.750169000   1.538010423
Se       4.899392604   0.921503438   1.550827641
Se       3.247742000   3.782246123   1.550827641



     Writing output data file mose2_f.save
     Check: negative starting charge=   -0.000783
     NEW-OLD atomic charge density approx. for the potential
     Check: negative starting charge=   -0.000785

     negative rho (up, down):  3.202E-04 0.000E+00

     total cpu time spent up to now is     2847.5 secs

     per-process dynamical memory:   131.1 Mb

     Self-consistent Calculation

     iteration #  1     ecut=    70.00 Ry     beta=0.70
     CG style diagonalization
     c_bands:  1 eigenvalues not converged
     ethr =  1.00E-06,  avg # of iterations = 16.7

     negative rho (up, down):  1.516E-04 0.000E+00

     total cpu time spent up to now is     3161.2 secs

     total energy              =    -909.34067893 Ry
     Harris-Foulkes estimate   =    -909.34155142 Ry
     estimated scf accuracy    <       0.00129791 Ry

     iteration #  2     ecut=    70.00 Ry     beta=0.70
     CG style diagonalization
     ethr =  1.24E-06,  avg # of iterations =  3.6

     negative rho (up, down):  1.332E-04 0.000E+00

     total cpu time spent up to now is     3221.6 secs

     total energy              =    -909.34023623 Ry
     Harris-Foulkes estimate   =    -909.34162884 Ry
     estimated scf accuracy    <       0.00353294 Ry

     iteration #  3     ecut=    70.00 Ry     beta=0.70
     CG style diagonalization
     ethr =  1.24E-06,  avg # of iterations =  3.7

     negative rho (up, down):  1.284E-04 0.000E+00

     total cpu time spent up to now is     3282.5 secs

     total energy              =    -909.34077029 Ry
     Harris-Foulkes estimate   =    -909.34134244 Ry
     estimated scf accuracy    <       0.00210077 Ry

     iteration #  4     ecut=    70.00 Ry     beta=0.70
     CG style diagonalization
     ethr =  1.24E-06,  avg # of iterations =  3.3

     negative rho (up, down):  1.242E-04 0.000E+00

     total cpu time spent up to now is     3336.1 secs

     total energy              =    -909.34099707 Ry
     Harris-Foulkes estimate   =    -909.34117192 Ry
     estimated scf accuracy    <       0.00058204 Ry

     iteration #  5     ecut=    70.00 Ry     beta=0.70
     CG style diagonalization
     ethr =  5.54E-07,  avg # of iterations =  3.2

     negative rho (up, down):  1.230E-04 0.000E+00

     total cpu time spent up to now is     3387.4 secs

     total energy              =    -909.34107136 Ry
     Harris-Foulkes estimate   =    -909.34113371 Ry
     estimated scf accuracy    <       0.00021804 Ry

     iteration #  6     ecut=    70.00 Ry     beta=0.70
     CG style diagonalization
     ethr =  2.08E-07,  avg # of iterations =  3.2

     negative rho (up, down):  1.227E-04 0.000E+00

     total cpu time spent up to now is     3438.2 secs

     total energy              =    -909.34110002 Ry
     Harris-Foulkes estimate   =    -909.34110720 Ry
     estimated scf accuracy    <       0.00002006 Ry

     iteration #  7     ecut=    70.00 Ry     beta=0.70
     CG style diagonalization
     ethr =  1.91E-08,  avg # of iterations =  3.4

     negative rho (up, down):  1.224E-04 0.000E+00

     total cpu time spent up to now is     3493.4 secs

     total energy              =    -909.34110454 Ry
     Harris-Foulkes estimate   =    -909.34110558 Ry
     estimated scf accuracy    <       0.00000289 Ry

     iteration #  8     ecut=    70.00 Ry     beta=0.70
     CG style diagonalization
     ethr =  2.75E-09,  avg # of iterations =  3.8

     negative rho (up, down):  1.224E-04 0.000E+00

     total cpu time spent up to now is     3557.5 secs

     total energy              =    -909.34110556 Ry
     Harris-Foulkes estimate   =    -909.34110590 Ry
     estimated scf accuracy    <       0.00000105 Ry

     iteration #  9     ecut=    70.00 Ry     beta=0.70
     CG style diagonalization
     ethr =  1.00E-09,  avg # of iterations =  3.6

     negative rho (up, down):  1.224E-04 0.000E+00

     total cpu time spent up to now is     3617.8 secs

     total energy              =    -909.34110583 Ry
     Harris-Foulkes estimate   =    -909.34110584 Ry
     estimated scf accuracy    <       0.00000005 Ry

     iteration # 10     ecut=    70.00 Ry     beta=0.70
     CG style diagonalization
     ethr =  4.35E-11,  avg # of iterations =  6.2

     negative rho (up, down):  1.224E-04 0.000E+00

     total cpu time spent up to now is     3727.1 secs

     End of self-consistent calculation

          k = 0.0000 0.0000 0.0000 ( 48761 PWs)   bands (ev):

   -61.4418 -61.4148 -61.4148 -61.3923 -35.7685 -35.7685 -35.7316 -35.6620
   -35.6117 -35.6117 -35.5830 -35.5490 -35.5005 -35.5005 -35.4248 -35.4247
   -23.7027 -15.0476 -13.9477 -13.3218 -13.3218 -13.2844 -13.0538 -13.0538
    -6.7907  -6.7372  -6.7372  -6.5293  -6.0416  -6.0416  -5.8347  -5.4660
    -4.7781  -4.7781  -4.4164  -4.4164  -3.7657  -3.4901  -3.1535  -3.1535
    -2.7144  -2.6287  -2.6287  -2.3444  -2.3444  -1.6980  -1.6579  -1.6579
    -1.3730  -1.3698  -1.3698  -1.0582   1.0834   1.0835   1.2826   1.3267
     1.3267   1.4780   1.8674   1.8674   1.8718   2.4050   2.4052   2.8587

          k = 0.0000 0.1155 0.0000 ( 48801 PWs)   bands (ev):

   -61.4412 -61.4153 -61.4148 -61.3925 -35.7643 -35.7624 -35.7272 -35.6600
   -35.6129 -35.6117 -35.5834 -35.5517 -35.5051 -35.5008 -35.4315 -35.4260
   -23.7025 -15.0147 -13.9327 -13.3717 -13.3245 -13.2926 -13.0775 -13.0532
    -6.7392  -6.7005  -6.6872  -6.4820  -6.0268  -6.0072  -5.7983  -5.4580
    -4.7626  -4.7560  -4.4205  -4.4028  -3.7592  -3.5092  -3.2328  -3.1268
    -2.8117  -2.6552  -2.6160  -2.3667  -2.3655  -1.7951  -1.7864  -1.6380
    -1.5468  -1.3621  -1.2580  -1.0663   1.0015   1.0026   1.2174   1.3118
     1.3493   1.5702   1.7419   1.8615   1.9903   2.2601   2.4207   2.8288

          k = 0.0000 0.2309 0.0000 ( 48770 PWs)   bands (ev):

   -61.4394 -61.4166 -61.4148 -61.3929 -35.7523 -35.7457 -35.7143 -35.6541
   -35.6165 -35.6119 -35.5845 -35.5605 -35.5186 -35.5007 -35.4505 -35.4297
   -23.7020 -14.9177 -13.8909 -13.5208 -13.3318 -13.3055 -13.1410 -13.0514
    -6.6170  -6.6056  -6.5547  -6.3334  -5.9783  -5.9198  -5.6965  -5.4078
    -4.7267  -4.6926  -4.4423  -4.3643  -3.7720  -3.5621  -3.4135  -3.0557
    -3.0442  -2.7603  -2.5830  -2.4780  -2.4277  -2.1489  -1.8842  -1.7027
    -1.6842  -1.3350  -1.2432  -1.0894   0.7909   0.8394   1.1050   1.3099
     1.3403   1.6461   1.7072   1.8473   1.9247   2.0985   2.4720   2.6965

          k = 0.0000 0.3464 0.0000 ( 48772 PWs)   bands (ev):

   -61.4368 -61.4188 -61.4148 -61.3934 -35.7351 -35.7238 -35.6932 -35.6440
   -35.6223 -35.6123 -35.5858 -35.5749 -35.5395 -35.4987 -35.4773 -35.4346
   -23.7014 -14.7624 -13.8532 -13.7113 -13.3407 -13.3340 -13.2184 -13.0493
    -6.4956  -6.4876  -6.3840  -6.1101  -5.8900  -5.7941  -5.5688  -5.2660
    -4.6909  -4.6010  -4.4850  -4.3051  -3.9010  -3.6290  -3.6021  -3.3564
    -2.9682  -2.9421  -2.7398  -2.5423  -2.4737  -2.4092  -1.9636  -1.8277
    -1.7747  -1.3446  -1.2806  -1.1124   0.5506   0.6866   0.9991   1.2567
     1.3074   1.5299   1.7298   1.7948   1.8413   2.0819   2.3524   2.4893

          k = 0.0000 0.4619 0.0000 ( 48764 PWs)   bands (ev):

   -61.4340 -61.4212 -61.4148 -61.3938 -35.7178 -35.7055 -35.6673 -35.6304
   -35.6281 -35.6137 -35.5898 -35.5871 -35.5656 -35.5033 -35.4958 -35.4392
   -23.7010 -14.5606 -14.0291 -13.7066 -13.4010 -13.3478 -13.2628 -13.0475
    -6.4180  -6.3929  -6.2482  -5.9055  -5.7843  -5.6299  -5.4435  -5.1265
    -4.6239  -4.5173  -4.4867  -4.2245  -4.1117  -3.8680  -3.6720  -3.6590
    -3.1984  -3.0112  -2.8282  -2.5607  -2.5345  -2.3259  -2.0457  -1.9769
    -1.7751  -1.4592  -1.3247  -1.1084   0.3779   0.5873   0.9102   1.1784
     1.2991   1.3629   1.7668   1.7914   1.8730   1.9548   2.1107   2.2581

          k = 0.0000-0.5774 0.0000 ( 48748 PWs)   bands (ev):

   -61.4325 -61.4225 -61.4148 -61.3939 -35.7097 -35.6984 -35.6528 -35.6347
   -35.6151 -35.6138 -35.5961 -35.5892 -35.5846 -35.5146 -35.4944 -35.4411
   -23.7008 -14.3853 -14.2193 -13.6608 -13.4520 -13.3506 -13.2728 -13.0468
    -6.3919  -6.3563  -6.2063  -5.8040  -5.7332  -5.5393  -5.3955  -5.1017
    -4.5203  -4.4864  -4.3859  -4.3046  -4.1703  -4.0407  -3.8279  -3.6002
    -3.4610  -3.0097  -2.7688  -2.6200  -2.5150  -2.2368  -2.0974  -2.0769
    -1.6791  -1.6042  -1.3435  -1.1012   0.3169   0.5549   0.8721   1.1497
     1.2943   1.3097   1.7767   1.8211   1.8868   1.9025   1.9831   2.1755

          k = 0.1000 0.1732 0.0000 ( 48791 PWs)   bands (ev):

   -61.4400 -61.4161 -61.4148 -61.3927 -35.7564 -35.7507 -35.7187 -35.6561
   -35.6152 -35.6119 -35.5841 -35.5579 -35.5128 -35.5021 -35.4441 -35.4287
   -23.7022 -14.9497 -13.9040 -13.4446 -13.3945 -13.2646 -13.1218 -13.0517
    -6.6556  -6.6307  -6.5966  -6.3836  -6.0102  -5.9306  -5.7280  -5.4293
    -4.7358  -4.7144  -4.4257  -4.3871  -3.7570  -3.5527  -3.3531  -3.0915
    -2.9672  -2.7195  -2.5919  -2.4648  -2.3922  -2.0046  -1.8661  -1.7816
    -1.5616  -1.3698  -1.2219  -1.0818   0.8361   0.9058   1.1475   1.2654
     1.3959   1.6115   1.6857   1.8545   2.0301   2.0834   2.4520   2.7514

          k = 0.1000 0.2887 0.0000 ( 48778 PWs)   bands (ev):

   -61.4378 -61.4178 -61.4149 -61.3932 -35.7419 -35.7300 -35.7025 -35.6481
   -35.6197 -35.6126 -35.5852 -35.5715 -35.5268 -35.5029 -35.4661 -35.4336
   -23.7016 -14.8235 -13.8541 -13.6136 -13.4584 -13.2385 -13.1943 -13.0491
    -6.5321  -6.5280  -6.4463  -6.1936  -5.9626  -5.7969  -5.6098  -5.3266
    -4.6986  -4.6392  -4.4560  -4.3630  -3.8048  -3.6481  -3.5028  -3.2432
    -3.0675  -2.8717  -2.5870  -2.5274  -2.4644  -2.3331  -2.0297  -1.8190
    -1.6320  -1.3871  -1.2139  -1.0954   0.6121   0.7616   1.0491   1.1963
     1.4043   1.5213   1.6994   1.7785   1.8596   2.1522   2.4514   2.5086

          k = 0.1000 0.4041 0.0000 ( 48753 PWs)   bands (ev):

   -61.4350 -61.4200 -61.4151 -61.3936 -35.7238 -35.7080 -35.6797 -35.6362
   -35.6261 -35.6138 -35.5900 -35.5862 -35.5477 -35.5030 -35.4894 -35.4391
   -23.7011 -14.6439 -13.8981 -13.7317 -13.5044 -13.3012 -13.2031 -13.0461
    -6.4399  -6.4169  -6.3047  -5.9837  -5.8368  -5.6431  -5.4708  -5.1572
    -4.6600  -4.5627  -4.5031  -4.3135  -3.9727  -3.7607  -3.6919  -3.5452
    -3.1377  -2.9689  -2.8188  -2.5980  -2.4792  -2.3674  -2.0967  -1.8804
    -1.7043  -1.4397  -1.2894  -1.0595   0.4223   0.6239   0.9591   1.1113
     1.3177   1.4252   1.6307   1.7808   1.8373   2.0740   2.2021   2.3186

          k = 0.1000 0.5196 0.0000 ( 48763 PWs)   bands (ev):

   -61.4327 -61.4221 -61.4151 -61.3939 -35.7090 -35.6946 -35.6571 -35.6332
   -35.6212 -35.6157 -35.6043 -35.5873 -35.5713 -35.5125 -35.4952 -35.4430
   -23.7008 -14.4317 -14.1306 -13.6680 -13.5480 -13.3708 -13.1937 -13.0442
    -6.3925  -6.3521  -6.2357  -5.8020  -5.7281  -5.5172  -5.3402  -5.1005
    -4.6018  -4.4847  -4.4248  -4.2617  -4.2084  -3.9930  -3.8874  -3.6199
    -3.2570  -3.1109  -2.9051  -2.6899  -2.3910  -2.2566  -2.1368  -1.9525
    -1.6930  -1.5543  -1.3675  -1.0211   0.3171   0.5431   0.9043   1.0551
     1.2293   1.3773   1.6431   1.7635   1.8374   1.9382   2.0686   2.1961

          k = 0.2000 0.3464 0.0000 ( 48776 PWs)   bands (ev):

   -61.4354 -61.4194 -61.4154 -61.3935 -35.7262 -35.7064 -35.6865 -35.6386
   -35.6247 -35.6142 -35.5916 -35.5858 -35.5367 -35.5083 -35.4838 -35.4400
   -23.7012 -14.6724 -13.8088 -13.7341 -13.6049 -13.2858 -13.1679 -13.0441
    -6.4494  -6.4201  -6.3357  -6.0173  -5.8645  -5.6209  -5.4794  -5.1640
    -4.6639  -4.5790  -4.5129  -4.3789  -3.8429  -3.7967  -3.6895  -3.4753
    -3.2316  -2.9539  -2.7759  -2.5041  -2.4562  -2.3378  -2.2863  -1.7980
    -1.6409  -1.4550  -1.2604  -1.0174   0.4344   0.6505   0.9758   1.0614
     1.3262   1.4428   1.5730   1.7366   1.8125   2.1276   2.2558   2.3267

          k = 0.2000 0.4619 0.0000 ( 48790 PWs)   bands (ev):

   -61.4329 -61.4212 -61.4158 -61.3938 -35.7076 -35.6855 -35.6675 -35.6335
   -35.6261 -35.6171 -35.6112 -35.5864 -35.5562 -35.5128 -35.4941 -35.4465
   -23.7008 -14.4758 -13.9669 -13.7655 -13.6327 -13.3762 -13.1308 -13.0378
    -6.4001  -6.3377  -6.2756  -5.8335  -5.6716  -5.4793  -5.3089  -5.0413
    -4.6486  -4.5836  -4.4851  -4.3601  -4.0878  -3.9527  -3.8433  -3.6278
    -3.3340  -3.0655  -3.0289  -2.6167  -2.3801  -2.2953  -2.2135  -1.7873
    -1.6763  -1.5164  -1.3656  -0.9122   0.3183   0.5341   0.8971   0.9573
     1.2077   1.3774   1.5597   1.6964   1.7377   1.9155   2.1133   2.2774

          k = 0.2000 0.5774 0.0000 ( 48766 PWs)   bands (ev):

   -61.4317 -61.4222 -61.4160 -61.3939 -35.6968 -35.6789 -35.6536 -35.6377
   -35.6313 -35.6166 -35.6121 -35.5869 -35.5705 -35.5154 -35.4958 -35.4493
   -23.7006 -14.3007 -14.1561 -13.7641 -13.6102 -13.4265 -13.1189 -13.0345
    -6.3872  -6.3160  -6.2488  -5.7156  -5.5904  -5.4160  -5.1653  -5.1195
    -4.6415  -4.5037  -4.4100  -4.3766  -4.2820  -4.0069  -3.9533  -3.6579
    -3.3901  -3.1446  -3.0930  -2.6950  -2.3370  -2.2082  -2.1788  -1.7889
    -1.6856  -1.5693  -1.4148  -0.8649   0.2781   0.4832   0.8670   0.9166
     1.1615   1.3546   1.5648   1.6715   1.7254   1.8039   2.0428   2.2783

          k = 0.3000 0.5196 0.0000 ( 48786 PWs)   bands (ev):

   -61.4313 -61.4220 -61.4166 -61.3939 -35.6884 -35.6642 -35.6624 -35.6457
   -35.6326 -35.6192 -35.6131 -35.5865 -35.5689 -35.5160 -35.4953 -35.4529
   -23.7006 -14.2761 -14.0561 -13.9241 -13.5819 -13.4595 -13.0963 -13.0261
    -6.3945  -6.3060  -6.2436  -5.6973  -5.4629  -5.3583  -5.1888  -5.0744
    -4.6540  -4.5713  -4.5113  -4.3908  -4.2377  -3.9576  -3.8834  -3.7105
    -3.6140  -3.1436  -3.1159  -2.5902  -2.4771  -2.1670  -2.1336  -1.7396
    -1.6913  -1.5430  -1.4281  -0.7868   0.2680   0.4533   0.7738   0.9055
     1.1709   1.3098   1.5505   1.6300   1.6552   1.7479   2.0203   2.3243

     the Fermi energy is     0.4038 ev

!    total energy              =    -909.34110595 Ry
     Harris-Foulkes estimate   =    -909.34110595 Ry
     estimated scf accuracy    <          3.1E-09 Ry

     The total energy is the sum of the following terms:

     one-electron contribution =   -4327.70397324 Ry
     hartree contribution      =    2168.83760520 Ry
     xc contribution           =    -291.24998687 Ry
     ewald contribution        =    1540.77923840 Ry
     smearing contrib. (-TS)   =      -0.00398943 Ry

     convergence has been achieved in  10 iterations

     negative rho (up, down):  1.224E-04 0.000E+00

     Forces acting on atoms (Ry/au):

     atom    1 type  1   force =    -0.00000000    0.00457701    0.00134450
     atom    2 type  1   force =     0.00396381   -0.00228850    0.00134450
     atom    3 type  1   force =     0.00000000    0.00000000   -0.00121542
     atom    4 type  1   force =    -0.00396381   -0.00228850    0.00134450
     atom    5 type  2   force =     0.00253488    0.00146351    0.00344156
     atom    6 type  3   force =     0.00000000    0.00000000   -0.03598281
     atom    7 type  2   force =    -0.00253488    0.00146351    0.00344156
     atom    8 type  2   force =    -0.00000000   -0.00292702    0.00344156
     atom    9 type  2   force =    -0.00627237   -0.00362135    0.01268516
     atom   10 type  2   force =     0.00000000    0.00000000   -0.01521544
     atom   11 type  2   force =     0.00627237   -0.00362135    0.01268516
     atom   12 type  2   force =    -0.00000000    0.00724270    0.01268516

     Total force =     0.047931     Total SCF correction =     0.000181


     entering subroutine stress ...


     negative rho (up, down):  1.224E-04 0.000E+00
          total   stress  (Ry/bohr**3)                   (kbar)     P=  -10.94
  -0.00009693   0.00000000  -0.00000000        -14.26      0.00     -0.00
   0.00000000  -0.00009693  -0.00000000          0.00    -14.26     -0.00
   0.00000000   0.00000000  -0.00002926          0.00      0.00     -4.30


     number of scf cycles    =   4
     number of bfgs steps    =   3

     energy   old            =    -909.3329595395 Ry
     energy   new            =    -909.3411059490 Ry

     CASE: energy  _new < energy  _old

     new trust radius        =       0.1725722036 bohr
     new conv_thr            =       0.0000000036 Ry


ATOMIC_POSITIONS (angstrom)
Mo      -0.000000000   1.962691785   3.214993795
Mo      -1.548001299   4.643908608   3.214993795
Mo       3.247742000   1.875085000   3.180560233
Mo       1.548001299   4.643908608   3.214993795
Se       1.629116034   0.940570222   4.853053794
F        0.000000000   3.750169000   4.597117152
Se       4.866367966   0.940570222   4.853053794
Se       3.247742000   3.744112556   4.853053794
Se       1.578793474   0.911516478   1.568358344
Se       0.000000000   3.750169000   1.520000815
Se       4.916690526   0.911516478   1.568358344
Se       3.247742000   3.802220044   1.568358344



     Writing output data file mose2_f.save
     Check: negative starting charge=   -0.000785
     NEW-OLD atomic charge density approx. for the potential
     Check: negative starting charge=   -0.000788

     negative rho (up, down):  4.295E-04 0.000E+00

     total cpu time spent up to now is     3758.7 secs

     per-process dynamical memory:   131.1 Mb

     Self-consistent Calculation

     iteration #  1     ecut=    70.00 Ry     beta=0.70
     CG style diagonalization
     ethr =  1.00E-06,  avg # of iterations = 18.3

     negative rho (up, down):  1.747E-04 0.000E+00

     total cpu time spent up to now is     4101.1 secs

     total energy              =    -909.34628003 Ry
     Harris-Foulkes estimate   =    -909.34777637 Ry
     estimated scf accuracy    <       0.00235727 Ry

     iteration #  2     ecut=    70.00 Ry     beta=0.70
     CG style diagonalization
     ethr =  2.25E-06,  avg # of iterations =  3.7

     negative rho (up, down):  1.444E-04 0.000E+00

     total cpu time spent up to now is     4163.4 secs

     total energy              =    -909.34544083 Ry
     Harris-Foulkes estimate   =    -909.34774346 Ry
     estimated scf accuracy    <       0.00561358 Ry

     iteration #  3     ecut=    70.00 Ry     beta=0.70
     CG style diagonalization
     ethr =  2.25E-06,  avg # of iterations =  3.8

     negative rho (up, down):  1.320E-04 0.000E+00

     total cpu time spent up to now is     4226.8 secs

     total energy              =    -909.34634491 Ry
     Harris-Foulkes estimate   =    -909.34735520 Ry
     estimated scf accuracy    <       0.00354216 Ry

     iteration #  4     ecut=    70.00 Ry     beta=0.70
     CG style diagonalization
     ethr =  2.25E-06,  avg # of iterations =  3.3

     negative rho (up, down):  1.260E-04 0.000E+00

     total cpu time spent up to now is     4281.0 secs

     total energy              =    -909.34678262 Ry
     Harris-Foulkes estimate   =    -909.34701093 Ry
     estimated scf accuracy    <       0.00065500 Ry

     iteration #  5     ecut=    70.00 Ry     beta=0.70
     CG style diagonalization
     ethr =  6.24E-07,  avg # of iterations =  3.3

     negative rho (up, down):  1.249E-04 0.000E+00

     total cpu time spent up to now is     4335.5 secs

     total energy              =    -909.34689624 Ry
     Harris-Foulkes estimate   =    -909.34695362 Ry
     estimated scf accuracy    <       0.00017318 Ry

     iteration #  6     ecut=    70.00 Ry     beta=0.70
     CG style diagonalization
     ethr =  1.65E-07,  avg # of iterations =  3.3

     negative rho (up, down):  1.243E-04 0.000E+00

     total cpu time spent up to now is     4388.1 secs

     total energy              =    -909.34692617 Ry
     Harris-Foulkes estimate   =    -909.34692897 Ry
     estimated scf accuracy    <       0.00000552 Ry

     iteration #  7     ecut=    70.00 Ry     beta=0.70
     CG style diagonalization
     ethr =  5.26E-09,  avg # of iterations =  4.1

     negative rho (up, down):  1.241E-04 0.000E+00

     total cpu time spent up to now is     4458.2 secs

     total energy              =    -909.34692783 Ry
     Harris-Foulkes estimate   =    -909.34693129 Ry
     estimated scf accuracy    <       0.00001310 Ry

     iteration #  8     ecut=    70.00 Ry     beta=0.70
     CG style diagonalization
     ethr =  5.26E-09,  avg # of iterations =  3.5

     negative rho (up, down):  1.241E-04 0.000E+00

     total cpu time spent up to now is     4515.2 secs

     total energy              =    -909.34692960 Ry
     Harris-Foulkes estimate   =    -909.34693033 Ry
     estimated scf accuracy    <       0.00000288 Ry

[...]


ATOMIC_POSITIONS (angstrom)
Mo      -0.000000000   1.965416789   3.206270606
Mo      -1.545641376   4.642546105   3.206270606
Mo       3.247742000   1.875085000   3.200568950
Mo       1.545641376   4.642546105   3.206270606
Se       1.625927633   0.938729397   4.858263086
F       -0.000000000   3.750169000   4.565915673
Se       4.869556367   0.938729397   4.858263086
Se       3.247742000   3.747794205   4.858263086
Se       1.582051193   0.913397323   1.591390985
Se      -0.000000000   3.750169000   1.472637345
Se       4.913432807   0.913397323   1.591390985
Se       3.247742000   3.798458353   1.591390985



     Writing output data file mose2_f.save
     Check: negative starting charge=   -0.000803
     NEW-OLD atomic charge density approx. for the potential
     Check: negative starting charge=   -0.000805

     negative rho (up, down):  1.241E-04 0.000E+00

     total cpu time spent up to now is    10378.8 secs

     per-process dynamical memory:   131.1 Mb

     Self-consistent Calculation

     iteration #  1     ecut=    70.00 Ry     beta=0.70
     CG style diagonalization
     ethr =  1.00E-06,  avg # of iterations =  3.1

     Threshold (ethr) on eigenvalues was too large:
     Diagonalizing with lowered threshold

     CG style diagonalization
     c_bands:  2 eigenvalues not converged
     c_bands:  3 eigenvalues not converged
     c_bands:  2 eigenvalues not converged
     ethr =  4.16E-09,  avg # of iterations = 12.5

     negative rho (up, down):  1.229E-04 0.000E+00

     total cpu time spent up to now is    10679.1 secs

     total energy              =    -909.34882182 Ry
     Harris-Foulkes estimate   =    -909.34882516 Ry
     estimated scf accuracy    <       0.00000463 Ry

     iteration #  2     ecut=    70.00 Ry     beta=0.70
     CG style diagonalization
     ethr =  4.41E-09,  avg # of iterations =  3.9

     negative rho (up, down):  1.227E-04 0.000E+00

     total cpu time spent up to now is    10748.1 secs

     total energy              =    -909.34881934 Ry
     Harris-Foulkes estimate   =    -909.34882671 Ry
     estimated scf accuracy    <       0.00002146 Ry

     iteration #  3     ecut=    70.00 Ry     beta=0.70
     CG style diagonalization
     ethr =  4.41E-09,  avg # of iterations =  3.7

     negative rho (up, down):  1.227E-04 0.000E+00

     total cpu time spent up to now is    10813.8 secs

     total energy              =    -909.34882262 Ry
     Harris-Foulkes estimate   =    -909.34882457 Ry
     estimated scf accuracy    <       0.00000810 Ry

     iteration #  4     ecut=    70.00 Ry     beta=0.70
     CG style diagonalization
     ethr =  4.41E-09,  avg # of iterations =  3.3

     negative rho (up, down):  1.227E-04 0.000E+00

     total cpu time spent up to now is    10867.7 secs

     total energy              =    -909.34882349 Ry
     Harris-Foulkes estimate   =    -909.34882381 Ry
     estimated scf accuracy    <       0.00000079 Ry

     iteration #  5     ecut=    70.00 Ry     beta=0.70
     CG style diagonalization
     ethr =  7.56E-10,  avg # of iterations =  3.6

     negative rho (up, down):  1.227E-04 0.000E+00

     total cpu time spent up to now is    10927.3 secs

     total energy              =    -909.34882361 Ry
     Harris-Foulkes estimate   =    -909.34882393 Ry
     estimated scf accuracy    <       0.00000150 Ry

     iteration #  6     ecut=    70.00 Ry     beta=0.70
     CG style diagonalization
     ethr =  7.56E-10,  avg # of iterations =  3.2

     negative rho (up, down):  1.227E-04 0.000E+00

     total cpu time spent up to now is    10979.0 secs

     total energy              =    -909.34882375 Ry
     Harris-Foulkes estimate   =    -909.34882376 Ry
     estimated scf accuracy    <       0.00000002 Ry

     iteration #  7     ecut=    70.00 Ry     beta=0.70
     CG style diagonalization
     ethr =  2.25E-11,  avg # of iterations =  4.3

     negative rho (up, down):  1.227E-04 0.000E+00

     total cpu time spent up to now is    11051.7 secs

     total energy              =    -909.34882376 Ry
     Harris-Foulkes estimate   =    -909.34882377 Ry
     estimated scf accuracy    <       0.00000002 Ry

     iteration #  8     ecut=    70.00 Ry     beta=0.70
     CG style diagonalization
     ethr =  2.20E-11,  avg # of iterations =  3.3

     negative rho (up, down):  1.227E-04 0.000E+00

     total cpu time spent up to now is    11105.7 secs

     total energy              =    -909.34882377 Ry
     Harris-Foulkes estimate   =    -909.34882377 Ry
     estimated scf accuracy    <          2.6E-09 Ry

     iteration #  9     ecut=    70.00 Ry     beta=0.70
     CG style diagonalization
     ethr =  2.44E-12,  avg # of iterations =  3.9

     negative rho (up, down):  1.227E-04 0.000E+00

     total cpu time spent up to now is    11171.5 secs

     total energy              =    -909.34882377 Ry
     Harris-Foulkes estimate   =    -909.34882377 Ry
     estimated scf accuracy    <          3.4E-10 Ry

     iteration # 10     ecut=    70.00 Ry     beta=0.70
     CG style diagonalization
     ethr =  3.28E-13,  avg # of iterations =  5.1

     negative rho (up, down):  1.227E-04 0.000E+00

     total cpu time spent up to now is    11259.8 secs

     End of self-consistent calculation

          k = 0.0000 0.0000 0.0000 ( 48761 PWs)   bands (ev):

   -61.4351 -61.4064 -61.4064 -61.3632 -35.7831 -35.7568 -35.7568 -35.6430
   -35.6111 -35.6111 -35.5494 -35.5329 -35.4840 -35.4840 -35.4149 -35.4149
   -24.4502 -15.0253 -13.9197 -13.3310 -13.3310 -13.2326 -13.0026 -13.0025
    -7.2278  -7.2278  -7.1694  -6.6033  -6.1646  -6.1645  -5.9032  -5.4821
    -4.8330  -4.8330  -4.5108  -4.5108  -3.7368  -3.4835  -3.0872  -3.0872
    -2.6457  -2.5539  -2.5539  -2.3625  -2.3625  -1.7349  -1.6033  -1.6033
    -1.4387  -1.3512  -1.3512  -1.0044   1.1644   1.1644   1.3507   1.3507
     1.4265   1.5751   1.8641   1.8641   1.9608   2.4525   2.4529   2.7636

          k = 0.0000 0.1155 0.0000 ( 48801 PWs)   bands (ev):

   -61.4346 -61.4069 -61.4064 -61.3634 -35.7791 -35.7525 -35.7508 -35.6411
   -35.6124 -35.6112 -35.5498 -35.5359 -35.4884 -35.4843 -35.4214 -35.4161
   -24.4500 -14.9929 -13.9044 -13.3768 -13.3335 -13.2439 -13.0268 -13.0019
    -7.2115  -7.2059  -7.1390  -6.5417  -6.1343  -6.1185  -5.8654  -5.4701
    -4.8112  -4.8079  -4.5054  -4.4917  -3.7284  -3.5047  -3.1657  -3.0617
    -2.7680  -2.5876  -2.5461  -2.3831  -2.3532  -1.8123  -1.7420  -1.6038
    -1.5446  -1.3375  -1.2958  -1.0132   1.0946   1.1008   1.2925   1.3077
     1.4188   1.6725   1.7628   1.8626   2.0579   2.3094   2.4669   2.7466

          k = 0.0000 0.2309 0.0000 ( 48770 PWs)   bands (ev):

   -61.4331 -61.4081 -61.4064 -61.3637 -35.7688 -35.7400 -35.7330 -35.6354
   -35.6162 -35.6117 -35.5508 -35.5454 -35.5009 -35.4837 -35.4395 -35.4196
   -24.4493 -14.8976 -13.8619 -13.5171 -13.3399 -13.2625 -13.0917 -13.0004
    -7.1712  -7.1504  -7.0638  -6.3690  -6.0447  -5.9934  -5.7583  -5.4090
    -4.7597  -4.7378  -4.5037  -4.4351  -3.7326  -3.5660  -3.3463  -3.0243
    -2.9943  -2.7279  -2.5354  -2.4298  -2.4165  -2.1087  -1.8716  -1.6932
    -1.6574  -1.3009  -1.2944  -1.0349   0.8891   0.9417   1.1779   1.2902
     1.3730   1.6778   1.7971   1.8749   1.9683   2.1605   2.5163   2.7194

          k = 0.0000 0.3464 0.0000 ( 48772 PWs)   bands (ev):

   -61.4309 -61.4099 -61.4064 -61.3641 -35.7555 -35.7219 -35.7058 -35.6271
   -35.6212 -35.6130 -35.5603 -35.5523 -35.5207 -35.4812 -35.4639 -35.4246
   -24.4485 -14.7452 -13.8292 -13.6943 -13.3478 -13.2938 -13.1710 -12.9984
    -7.1266  -7.0816  -6.9833  -6.1317  -5.9094  -5.8148  -5.5997  -5.2772
    -4.7017  -4.6424  -4.5195  -4.3414  -3.8435  -3.6498  -3.5529  -3.3277
    -2.9387  -2.9133  -2.7043  -2.4849  -2.4567  -2.3488  -1.9235  -1.7945
    -1.7785  -1.3488  -1.3069  -1.0410   0.6428   0.7840   1.0760   1.2682
     1.2833   1.5798   1.7556   1.8225   1.9451   2.1033   2.3756   2.4869

          k = 0.0000 0.4619 0.0000 ( 48764 PWs)   bands (ev):

   -61.4288 -61.4117 -61.4064 -61.3644 -35.7440 -35.7032 -35.6764 -35.6279
   -35.6161 -35.6149 -35.5751 -35.5542 -35.5452 -35.4854 -35.4778 -35.4293
   -24.4478 -14.5490 -14.0108 -13.6746 -13.3613 -13.3542 -13.2180 -12.9967
    -7.0946  -7.0194  -6.9366  -5.9045  -5.7746  -5.6191  -5.4416  -5.1616
    -4.6266  -4.5619  -4.4929  -4.2210  -4.0476  -3.8410  -3.6925  -3.6142
    -3.1570  -3.0037  -2.7895  -2.5704  -2.4473  -2.2665  -1.9975  -1.9444
    -1.7788  -1.4326  -1.3966  -1.0129   0.4605   0.6798   0.9967   1.1871
     1.2738   1.4056   1.7795   1.8131   1.9619   1.9956   2.1252   2.2626

          k = 0.0000-0.5774 0.0000 ( 48748 PWs)   bands (ev):

   -61.4279 -61.4125 -61.4064 -61.3645 -35.7393 -35.6942 -35.6617 -35.6304
   -35.6187 -35.6072 -35.5813 -35.5621 -35.5540 -35.4938 -35.4762 -35.4314
   -24.4475 -14.3889 -14.1857 -13.6274 -13.4126 -13.3566 -13.2290 -12.9960
    -7.0834  -6.9903  -6.9276  -5.7922  -5.7153  -5.5178  -5.3993  -5.1259
    -4.5602  -4.5322  -4.3681  -4.2617  -4.1566  -3.9670  -3.7751  -3.6271
    -3.4280  -2.9953  -2.7411  -2.6151  -2.4289  -2.1770  -2.0504  -2.0486
    -1.6970  -1.5658  -1.4161  -0.9960   0.3943   0.6453   0.9610   1.1665
     1.2689   1.3444   1.8027   1.8135   1.9202   1.9951   2.0135   2.1782

          k = 0.1000 0.1732 0.0000 ( 48791 PWs)   bands (ev):

   -61.4336 -61.4077 -61.4064 -61.3636 -35.7720 -35.7433 -35.7396 -35.6372
   -35.6150 -35.6115 -35.5505 -35.5424 -35.4954 -35.4853 -35.4334 -35.4188
   -24.4495 -14.9291 -13.8752 -13.4518 -13.3777 -13.2370 -13.0719 -13.0007
    -7.1824  -7.1682  -7.0866  -6.4242  -6.0793  -6.0275  -5.7921  -5.4324
    -4.7755  -4.7596  -4.4955  -4.4630  -3.7219  -3.5508  -3.2857  -3.0320
    -2.9415  -2.6759  -2.5302  -2.4533  -2.3681  -1.9771  -1.8214  -1.7900
    -1.5437  -1.3589  -1.2493  -1.0286   0.9367   1.0119   1.2028   1.2701
     1.4293   1.6462   1.7841   1.8623   2.0894   2.1362   2.4950   2.6974

          k = 0.1000 0.2887 0.0000 ( 48778 PWs)   bands (ev):

   -61.4317 -61.4091 -61.4065 -61.3639 -35.7602 -35.7268 -35.7179 -35.6302
   -35.6197 -35.6122 -35.5565 -35.5516 -35.5086 -35.4859 -35.4534 -35.4237
   -24.4488 -14.8050 -13.8253 -13.6098 -13.4389 -13.2182 -13.1470 -12.9983
    -7.1392  -7.1074  -7.0112  -6.2182  -5.9699  -5.8679  -5.6553  -5.3248
    -4.7224  -4.6773  -4.5024  -4.4088  -3.7596  -3.6434  -3.4555  -3.2189
    -3.0223  -2.8540  -2.5561  -2.5024  -2.4055  -2.2871  -1.9901  -1.7980
    -1.6276  -1.3954  -1.2255  -1.0360   0.7119   0.8660   1.0886   1.2073
     1.4094   1.5509   1.7695   1.8656   1.9002   2.1669   2.4725   2.5253

          k = 0.1000 0.4041 0.0000 ( 48753 PWs)   bands (ev):

   -61.4295 -61.4109 -61.4066 -61.3643 -35.7473 -35.7073 -35.6893 -35.6270
   -35.6193 -35.6141 -35.5745 -35.5531 -35.5293 -35.4863 -35.4721 -35.4293
   -24.4480 -14.6293 -13.8829 -13.7042 -13.4838 -13.2641 -13.1781 -12.9956
    -7.1014  -7.0425  -6.9529  -5.9848  -5.8183  -5.6778  -5.4783  -5.1807
    -4.6637  -4.6027  -4.5126  -4.3189  -3.9205  -3.7362  -3.7073  -3.4917
    -3.1068  -2.9523  -2.7881  -2.5978  -2.3927  -2.3170  -2.0576  -1.8387
    -1.7079  -1.4491  -1.3070  -0.9895   0.5144   0.7202   1.0103   1.1118
     1.3398   1.4520   1.6598   1.8444   1.9150   2.0782   2.2162   2.3290

          k = 0.1000 0.5196 0.0000 ( 48763 PWs)   bands (ev):

   -61.4279 -61.4123 -61.4066 -61.3645 -35.7385 -35.6918 -35.6651 -35.6310
   -35.6180 -35.6095 -35.5886 -35.5550 -35.5505 -35.4930 -35.4761 -35.4335
   -24.4475 -14.4267 -14.1072 -13.6371 -13.5235 -13.3353 -13.1721 -12.9938
    -7.0807  -6.9953  -6.9318  -5.7929  -5.7128  -5.5203  -5.3398  -5.1296
    -4.6360  -4.4928  -4.4201  -4.2352  -4.1836  -3.9560  -3.8184  -3.6328
    -3.2308  -3.0892  -2.8797  -2.6628  -2.3257  -2.2068  -2.1021  -1.9061
    -1.6939  -1.5399  -1.4138  -0.9402   0.3994   0.6346   0.9768   1.0382
     1.2914   1.3737   1.6573   1.8195   1.8801   1.9657   2.1147   2.1967

          k = 0.2000 0.3464 0.0000 ( 48776 PWs)   bands (ev):

   -61.4298 -61.4105 -61.4067 -61.3642 -35.7484 -35.7060 -35.6969 -35.6272
   -35.6206 -35.6131 -35.5758 -35.5528 -35.5190 -35.4917 -35.4668 -35.4304
   -24.4481 -14.6570 -13.7880 -13.7258 -13.5715 -13.2413 -13.1501 -12.9940
    -7.1021  -7.0526  -6.9626  -6.0174  -5.8308  -5.6917  -5.4943  -5.1755
    -4.6739  -4.6211  -4.5151  -4.3883  -3.8053  -3.7654  -3.6969  -3.4042
    -3.2118  -2.9377  -2.7712  -2.4669  -2.4229  -2.2881  -2.2048  -1.7613
    -1.6505  -1.4663  -1.2625  -0.9619   0.5357   0.7530   0.9559   1.1079
     1.3516   1.4632   1.6379   1.8276   1.8593   2.1231   2.2569   2.3452

          k = 0.2000 0.4619 0.0000 ( 48790 PWs)   bands (ev):

   -61.4280 -61.4118 -61.4070 -61.3645 -35.7370 -35.6860 -35.6720 -35.6334
   -35.6156 -35.6126 -35.5961 -35.5539 -35.5385 -35.4944 -35.4736 -35.4374
   -24.4475 -14.4662 -13.9567 -13.7381 -13.5981 -13.3316 -13.1147 -12.9890
    -7.0764  -7.0041  -6.9379  -5.8222  -5.6514  -5.5228  -5.3114  -5.0847
    -4.6605  -4.5694  -4.4710  -4.3462  -4.0734  -3.9234  -3.8162  -3.5694
    -3.3118  -3.0645  -3.0043  -2.5864  -2.3563  -2.2266  -2.1434  -1.7435
    -1.6822  -1.5213  -1.3836  -0.8525   0.4151   0.6254   0.8576   1.0117
     1.2709   1.4096   1.5976   1.7413   1.7996   1.9336   2.1284   2.2895

          k = 0.2000 0.5774 0.0000 ( 48766 PWs)   bands (ev):

   -61.4272 -61.4124 -61.4071 -61.3646 -35.7320 -35.6760 -35.6592 -35.6346
   -35.6206 -35.6108 -35.6024 -35.5549 -35.5499 -35.4954 -35.4747 -35.4407
   -24.4473 -14.3074 -14.1275 -13.7386 -13.5750 -13.3819 -13.1027 -12.9865
    -7.0678  -6.9838  -6.9325  -5.7216  -5.5712  -5.4347  -5.1893  -5.1402
    -4.6560  -4.4929  -4.4084  -4.3160  -4.2847  -3.9891  -3.8639  -3.6576
    -3.3486  -3.1430  -3.0701  -2.6554  -2.3194  -2.1500  -2.1037  -1.7504
    -1.6655  -1.5772  -1.4507  -0.8012   0.3696   0.5694   0.8243   0.9718
     1.2483   1.3839   1.5885   1.7161   1.7599   1.8420   2.0649   2.2965

          k = 0.3000 0.5196 0.0000 ( 48786 PWs)   bands (ev):

   -61.4270 -61.4124 -61.4073 -61.3646 -35.7288 -35.6669 -35.6562 -35.6392
   -35.6236 -35.6153 -35.6038 -35.5545 -35.5492 -35.4958 -35.4730 -35.4451
   -24.4473 -14.2786 -14.0508 -13.8783 -13.5496 -13.4112 -13.0788 -12.9812
    -7.0631  -6.9835  -6.9306  -5.7042  -5.4461  -5.3957  -5.1960  -5.1126
    -4.6521  -4.5821  -4.4663  -4.3508  -4.2261  -3.9136  -3.8796  -3.6259
    -3.5946  -3.1359  -3.1087  -2.5426  -2.4663  -2.0899  -2.0684  -1.7162
    -1.6631  -1.5514  -1.4641  -0.7276   0.3712   0.5317   0.7231   0.9502
     1.2597   1.3637   1.5931   1.6463   1.6966   1.7882   2.0333   2.3442

     the Fermi energy is     0.4938 ev

!    total energy              =    -909.34882377 Ry
     Harris-Foulkes estimate   =    -909.34882377 Ry
     estimated scf accuracy    <          6.7E-11 Ry

     The total energy is the sum of the following terms:

     one-electron contribution =   -4348.37089603 Ry
     hartree contribution      =    2179.06313076 Ry
     xc contribution           =    -291.30528466 Ry
     ewald contribution        =    1551.26820591 Ry
     smearing contrib. (-TS)   =      -0.00397974 Ry

     convergence has been achieved in  10 iterations

     negative rho (up, down):  1.227E-04 0.000E+00

     Forces acting on atoms (Ry/au):

     atom    1 type  1   force =     0.00000000    0.00053717   -0.00015335
     atom    2 type  1   force =     0.00046521   -0.00026859   -0.00015335
     atom    3 type  1   force =     0.00000000    0.00000000   -0.00003881
     atom    4 type  1   force =    -0.00046521   -0.00026859   -0.00015335
     atom    5 type  2   force =    -0.00022318   -0.00012885   -0.00004967
     atom    6 type  3   force =     0.00000000   -0.00000000    0.00056145
     atom    7 type  2   force =     0.00022318   -0.00012885   -0.00004967
     atom    8 type  2   force =     0.00000000    0.00025770   -0.00004967
     atom    9 type  2   force =    -0.00050152   -0.00028955    0.00005913
     atom   10 type  2   force =     0.00000000    0.00000000   -0.00009099
     atom   11 type  2   force =     0.00050152   -0.00028955    0.00005913
     atom   12 type  2   force =     0.00000000    0.00057910    0.00005913

     Total force =     0.001576     Total SCF correction =     0.000034


     entering subroutine stress ...


     negative rho (up, down):  1.227E-04 0.000E+00
          total   stress  (Ry/bohr**3)                   (kbar)     P=   -9.08
  -0.00009220   0.00000000   0.00000000        -13.56      0.00      0.00
   0.00000000  -0.00009220   0.00000000          0.00    -13.56      0.00
   0.00000000   0.00000000  -0.00000085          0.00      0.00     -0.13


     bfgs converged in  12 scf cycles and  11 bfgs steps
     (criteria: energy <  1.0E-04, force <  1.0E-03)

     End of BFGS Geometry Optimization

     Final energy   =    -909.3488237667 Ry
Begin final coordinates

ATOMIC_POSITIONS (angstrom)
Mo      -0.000000000   1.965416789   3.206270606
Mo      -1.545641376   4.642546105   3.206270606
Mo       3.247742000   1.875085000   3.200568950
Mo       1.545641376   4.642546105   3.206270606
Se       1.625927633   0.938729397   4.858263086
F       -0.000000000   3.750169000   4.565915673
Se       4.869556367   0.938729397   4.858263086
Se       3.247742000   3.747794205   4.858263086
Se       1.582051193   0.913397323   1.591390985
Se      -0.000000000   3.750169000   1.472637345
Se       4.913432807   0.913397323   1.591390985
Se       3.247742000   3.798458353   1.591390985
End final coordinates



     Writing output data file mose2_f.save
 
     init_run     :      8.10s CPU      9.06s WALL (       1 calls)
     electrons    :  10853.01s CPU  10909.16s WALL (      12 calls)
     update_pot   :     20.55s CPU     24.39s WALL (      11 calls)
     forces       :     50.74s CPU     52.19s WALL (      12 calls)
     stress       :    271.71s CPU    275.46s WALL (      12 calls)

     Called by init_run:
     wfcinit      :      4.08s CPU      4.22s WALL (       1 calls)
     potinit      :      0.61s CPU      0.62s WALL (       1 calls)

     Called by electrons:
     c_bands      :  10155.64s CPU  10179.39s WALL (     132 calls)
     sum_band     :    541.32s CPU    557.02s WALL (     132 calls)
     v_of_rho     :      4.04s CPU      4.06s WALL (     138 calls)
     newd         :    156.82s CPU    170.35s WALL (     138 calls)
     mix_rho      :      4.65s CPU      4.72s WALL (     132 calls)

     Called by c_bands:
     init_us_2    :     15.33s CPU     15.37s WALL (    4046 calls)
     ccgdiagg     :   9789.30s CPU   9811.45s WALL (    1962 calls)
     wfcrot       :    344.45s CPU    345.89s WALL (    1724 calls)

     Called by sum_band:
     sum_band:bec :      0.29s CPU      0.30s WALL (    1848 calls)
     addusdens    :    274.07s CPU    288.72s WALL (     132 calls)

     Called by *cgdiagg:
     h_psi        :   5063.58s CPU   5077.17s WALL (  450627 calls)
     s_psi        :   3267.11s CPU   3272.95s WALL (  899530 calls)
     cdiaghg      :      2.47s CPU      2.77s WALL (    1724 calls)

     Called by h_psi:
     add_vuspsi   :   1758.06s CPU   1760.30s WALL (  450627 calls)
     h_1psi       :   6304.17s CPU   6319.96s WALL (  448903 calls)

     General routines
     calbec       :   3133.89s CPU   3141.21s WALL (  902218 calls)
     fft          :     25.73s CPU     26.39s WALL (    1325 calls)
     ffts         :      0.48s CPU      0.49s WALL (     270 calls)
     fftw         :   1036.22s CPU   1040.30s WALL ( 1237310 calls)
     interpolate  :      4.30s CPU      4.40s WALL (     270 calls)
     davcio       :      0.00s CPU      1.03s WALL (      14 calls)
 
     Parallel routines
     fft_scatter  :    521.83s CPU    524.42s WALL ( 1238905 calls)
 
     PWSCF        :     3h 7m CPU        3h 8m WALL

 
   This run was terminated on:  18:57:14  26Apr2017            

=------------------------------------------------------------------------------=
   JOB DONE.
=------------------------------------------------------------------------------=
