
     Program PWSCF v.5.4.0 starts on 26Apr2017 at 14: 7:37 

     This program is part of the open-source Quantum ESPRESSO suite
     for quantum simulation of materials; please cite
         "P. Giannozzi et al., J. Phys.:Condens. Matter 21 395502 (2009);
          URL http://www.quantum-espresso.org", 
     in publications or presentations arising from this work. More details at
     http://www.quantum-espresso.org/quote

     Parallel version (MPI), running on    24 processors
     R & G space division:  proc/nbgrp/npool/nimage =      24
     Waiting for input...
     Reading input from standard input
Warning: card &CELL ignored
Warning: card  CELL_DYNAMICS = 'BFGS', ignored
Warning: card  PRESS=0.1D0, ignored
Warning: card / ignored

     Current dimensions of program PWSCF are:
     Max number of different atomic species (ntypx) = 10
     Max number of k-points (npk) =  40000
     Max angular momentum in pseudopotentials (lmaxx) =  3

     Subspace diagonalization in iterative solution of the eigenvalue problem:
     a serial algorithm will be used

 
     Parallelization info
     --------------------
     sticks:   dense  smooth     PW     G-vecs:    dense   smooth      PW
     Min         302     121     32                64272    16243    2260
     Max         303     122     33                64287    16271    2275
     Sum        7267    2905    769              1542757   390237   54333
 


     bravais-lattice index     =            4
     lattice parameter (alat)  =      12.2747  a.u.
     unit-cell volume          =    4931.5212 (a.u.)^3
     number of atoms/cell      =           12
     number of atomic types    =            3
     number of electrons       =       103.00
     number of Kohn-Sham states=           62
     kinetic-energy cutoff     =      70.0000  Ry
     charge density cutoff     =     700.0000  Ry
     convergence threshold     =      1.0E-08
     mixing beta               =       0.7000
     number of iterations used =            8  plain     mixing
     Exchange-correlation      =  SLA  PZ   NOGX NOGC ( 1  1  0  0 0 0)
     nstep                     =           50


     celldm(1)=  12.274692  celldm(2)=   0.000000  celldm(3)=   3.079062
     celldm(4)=   0.000000  celldm(5)=   0.000000  celldm(6)=   0.000000

     crystal axes: (cart. coord. in units of alat)
               a(1) = (   1.000000   0.000000   0.000000 )  
               a(2) = (  -0.500000   0.866025   0.000000 )  
               a(3) = (   0.000000   0.000000   3.079062 )  

     reciprocal axes: (cart. coord. in units 2 pi/alat)
               b(1) = (  1.000000  0.577350  0.000000 )  
               b(2) = (  0.000000  1.154701  0.000000 )  
               b(3) = (  0.000000  0.000000  0.324774 )  


     PseudoPot. # 1 for Mo read from file:
     /afs/crc.nd.edu/user/j/jencomen/espresso/pseudo/Mo_LDA.UPF
     MD5 check sum: f5ddb34c5c8cdf9395e9f47ee8c17b30
     Pseudo is Ultrasoft + core correction, Zval = 14.0
     Generated by new atomic code, or converted to UPF format
     Using radial grid of  889 points,  6 beta functions with: 
                l(1) =   0
                l(2) =   0
                l(3) =   1
                l(4) =   1
                l(5) =   2
                l(6) =   2
     Q(r) pseudized with  6 coefficients,  rinner =    1.000   1.000   1.000
                                                       1.000   1.000

     PseudoPot. # 2 for Se read from file:
     /afs/crc.nd.edu/user/j/jencomen/espresso/pseudo/Se_LDA.UPF
     MD5 check sum: 29da00cbf48820a058e3666752a4b224
     Pseudo is Ultrasoft + core correction, Zval =  6.0
     Generated by new atomic code, or converted to UPF format
     Using radial grid of  877 points,  6 beta functions with: 
                l(1) =   0
                l(2) =   0
                l(3) =   1
                l(4) =   1
                l(5) =   2
                l(6) =   2
     Q(r) pseudized with  8 coefficients,  rinner =    1.300   1.300   1.300
                                                       1.300   1.300

     PseudoPot. # 3 for V  read from file:
     /afs/crc.nd.edu/user/j/jencomen/espresso/pseudo/V_LDA.UPF
     MD5 check sum: 6837650c1b6794e70f2dd415b006170f
     Pseudo is Ultrasoft + core correction, Zval = 13.0
     Generated by new atomic code, or converted to UPF format
     Using radial grid of  853 points,  6 beta functions with: 
                l(1) =   0
                l(2) =   0
                l(3) =   1
                l(4) =   1
                l(5) =   2
                l(6) =   2
     Q(r) pseudized with  8 coefficients,  rinner =    1.100   1.100   1.100
                                                       1.100   1.100

     atomic species   valence    mass     pseudopotential
        Mo            14.00    95.95000     Mo( 1.00)
        Se             6.00    78.97100     Se( 1.00)
        V             13.00    50.94150     V ( 1.00)

      6 Sym. Ops. (no inversion) found ( 4 have fractional translation)



   Cartesian axes

     site n.     atom                  positions (alat units)
         1           V   tau(   1) = (   0.0000000   0.2886750   0.4901723  )
         2           Mo  tau(   2) = (  -0.2499999   0.7216875   0.4901723  )
         3           Mo  tau(   3) = (   0.4999997   0.2886750   0.4901723  )
         4           Mo  tau(   4) = (   0.2499999   0.7216875   0.4901723  )
         5           Se  tau(   5) = (   0.2499999   0.1443374   0.7431011  )
         6           Se  tau(   6) = (   0.0000000   0.5773499   0.7431011  )
         7           Se  tau(   7) = (   0.7499996   0.1443374   0.7431011  )
         8           Se  tau(   8) = (   0.4999997   0.5773499   0.7431011  )
         9           Se  tau(   9) = (   0.2499999   0.1443374   0.2372435  )
        10           Se  tau(  10) = (   0.0000000   0.5773499   0.2372435  )
        11           Se  tau(  11) = (   0.7499996   0.1443374   0.2372435  )
        12           Se  tau(  12) = (   0.4999997   0.5773499   0.2372435  )

     number of k points=    14  gaussian smearing, width (Ry)=  0.0100
                       cart. coord. in units 2pi/alat
        k(    1) = (   0.0000000   0.0000000   0.0000000), wk =   0.0200000
        k(    2) = (   0.0000000   0.1154701   0.0000000), wk =   0.1200000
        k(    3) = (   0.0000000   0.2309401   0.0000000), wk =   0.1200000
        k(    4) = (   0.0000000   0.3464102   0.0000000), wk =   0.1200000
        k(    5) = (   0.0000000   0.4618802   0.0000000), wk =   0.1200000
        k(    6) = (   0.0000000  -0.5773503   0.0000000), wk =   0.0600000
        k(    7) = (   0.1000000   0.1732051   0.0000000), wk =   0.1200000
        k(    8) = (   0.1000000   0.2886751   0.0000000), wk =   0.2400000
        k(    9) = (   0.1000000   0.4041452   0.0000000), wk =   0.2400000
        k(   10) = (   0.1000000   0.5196152   0.0000000), wk =   0.2400000
        k(   11) = (   0.2000000   0.3464102   0.0000000), wk =   0.1200000
        k(   12) = (   0.2000000   0.4618802   0.0000000), wk =   0.2400000
        k(   13) = (   0.2000000   0.5773503   0.0000000), wk =   0.1200000
        k(   14) = (   0.3000000   0.5196152   0.0000000), wk =   0.1200000

     Dense  grid:  1542757 G-vectors     FFT dimensions: ( 108, 108, 320)

     Smooth grid:   390237 G-vectors     FFT dimensions: (  72,  72, 216)

     Largest allocated arrays     est. size (Mb)     dimensions
        Kohn-Sham Wavefunctions         1.95 Mb     (    2064,   62)
        NL pseudopotentials             6.80 Mb     (    2064,  216)
        Each V/rho on FFT grid          2.49 Mb     (  163296)
        Each G-vector array             0.49 Mb     (   64287)
        G-vector shells                 0.20 Mb     (   26242)
     Largest temporary arrays     est. size (Mb)     dimensions
        Each subspace H/S matrix        0.06 Mb     (      62,   62)
        Each <psi_i|beta_j> matrix      0.20 Mb     (     216,   62)
        Arrays for rho mixing          19.93 Mb     (  163296,    8)

     Initial potential from superposition of free atoms
     Check: negative starting charge=   -0.001214

     starting charge  102.99594, renormalised to  103.00000

     negative rho (up, down):  1.214E-03 0.000E+00
     Starting wfc are   81 randomized atomic wfcs

     total cpu time spent up to now is        8.6 secs

     per-process dynamical memory:   103.9 Mb

     Self-consistent Calculation

     iteration #  1     ecut=    70.00 Ry     beta=0.70
     CG style diagonalization
     ethr =  1.00E-02,  avg # of iterations =  2.6

     negative rho (up, down):  2.191E-04 0.000E+00

     total cpu time spent up to now is       64.3 secs

     total energy              =    -908.96629796 Ry
     Harris-Foulkes estimate   =    -909.80701669 Ry
     estimated scf accuracy    <       1.04246712 Ry

     iteration #  2     ecut=    70.00 Ry     beta=0.70
     CG style diagonalization
     ethr =  1.01E-03,  avg # of iterations =  4.7

     negative rho (up, down):  2.754E-04 0.000E+00

     total cpu time spent up to now is      145.0 secs

     total energy              =    -908.20730251 Ry
     Harris-Foulkes estimate   =    -911.50798924 Ry
     estimated scf accuracy    <      12.52543411 Ry

     iteration #  3     ecut=    70.00 Ry     beta=0.70
     CG style diagonalization
     ethr =  1.01E-03,  avg # of iterations =  4.5

     negative rho (up, down):  2.504E-04 0.000E+00

     total cpu time spent up to now is      222.5 secs

     total energy              =    -909.51867230 Ry
     Harris-Foulkes estimate   =    -909.70033511 Ry
     estimated scf accuracy    <       0.66320552 Ry

     iteration #  4     ecut=    70.00 Ry     beta=0.70
     CG style diagonalization
     ethr =  6.44E-04,  avg # of iterations =  3.3

     negative rho (up, down):  2.552E-04 0.000E+00

     total cpu time spent up to now is      275.8 secs

     total energy              =    -909.62485116 Ry
     Harris-Foulkes estimate   =    -909.70940440 Ry
     estimated scf accuracy    <       0.52264521 Ry

     iteration #  5     ecut=    70.00 Ry     beta=0.70
     CG style diagonalization
     ethr =  5.07E-04,  avg # of iterations =  3.0

     negative rho (up, down):  3.140E-04 0.000E+00

     total cpu time spent up to now is      324.2 secs

     total energy              =    -909.66277596 Ry
     Harris-Foulkes estimate   =    -909.66496213 Ry
     estimated scf accuracy    <       0.00816123 Ry

     iteration #  6     ecut=    70.00 Ry     beta=0.70
     CG style diagonalization
     ethr =  7.92E-06,  avg # of iterations =  4.6

     negative rho (up, down):  3.521E-04 0.000E+00

     total cpu time spent up to now is      404.2 secs

     total energy              =    -909.66785742 Ry
     Harris-Foulkes estimate   =    -909.66865164 Ry
     estimated scf accuracy    <       0.00633202 Ry

     iteration #  7     ecut=    70.00 Ry     beta=0.70
     CG style diagonalization
     ethr =  6.15E-06,  avg # of iterations =  3.1

     negative rho (up, down):  3.740E-04 0.000E+00

     total cpu time spent up to now is      454.4 secs

     total energy              =    -909.66821655 Ry
     Harris-Foulkes estimate   =    -909.66834072 Ry
     estimated scf accuracy    <       0.00085914 Ry

     iteration #  8     ecut=    70.00 Ry     beta=0.70
     CG style diagonalization
     ethr =  8.34E-07,  avg # of iterations =  3.5

     negative rho (up, down):  3.812E-04 0.000E+00

     total cpu time spent up to now is      512.9 secs

     total energy              =    -909.66838629 Ry
     Harris-Foulkes estimate   =    -909.66840238 Ry
     estimated scf accuracy    <       0.00006059 Ry

     iteration #  9     ecut=    70.00 Ry     beta=0.70
     CG style diagonalization
     ethr =  5.88E-08,  avg # of iterations =  6.2

     negative rho (up, down):  3.898E-04 0.000E+00

     total cpu time spent up to now is      622.6 secs

     total energy              =    -909.66848654 Ry
     Harris-Foulkes estimate   =    -909.66851510 Ry
     estimated scf accuracy    <       0.00014011 Ry

     iteration # 10     ecut=    70.00 Ry     beta=0.70
     CG style diagonalization
     ethr =  5.88E-08,  avg # of iterations =  3.6

     negative rho (up, down):  3.917E-04 0.000E+00

     total cpu time spent up to now is      681.6 secs

     total energy              =    -909.66850493 Ry
     Harris-Foulkes estimate   =    -909.66850576 Ry
     estimated scf accuracy    <       0.00000217 Ry

     iteration # 11     ecut=    70.00 Ry     beta=0.70
     CG style diagonalization
     ethr =  2.10E-09,  avg # of iterations =  7.6

     negative rho (up, down):  3.921E-04 0.000E+00

     total cpu time spent up to now is      818.7 secs

     total energy              =    -909.66851337 Ry
     Harris-Foulkes estimate   =    -909.66851369 Ry
     estimated scf accuracy    <       0.00000178 Ry

     iteration # 12     ecut=    70.00 Ry     beta=0.70
     CG style diagonalization
     ethr =  1.73E-09,  avg # of iterations =  3.4

     negative rho (up, down):  3.924E-04 0.000E+00

     total cpu time spent up to now is      876.1 secs

     total energy              =    -909.66851370 Ry
     Harris-Foulkes estimate   =    -909.66851373 Ry
     estimated scf accuracy    <       0.00000009 Ry

     iteration # 13     ecut=    70.00 Ry     beta=0.70
     CG style diagonalization
     ethr =  8.75E-11,  avg # of iterations =  6.4

     negative rho (up, down):  3.924E-04 0.000E+00

     total cpu time spent up to now is      991.0 secs

     total energy              =    -909.66851389 Ry
     Harris-Foulkes estimate   =    -909.66851390 Ry
     estimated scf accuracy    <       0.00000005 Ry

     iteration # 14     ecut=    70.00 Ry     beta=0.70
     CG style diagonalization
     ethr =  4.58E-11,  avg # of iterations =  3.8

     negative rho (up, down):  3.924E-04 0.000E+00

     total cpu time spent up to now is     1055.4 secs

     End of self-consistent calculation

          k = 0.0000 0.0000 0.0000 ( 48761 PWs)   bands (ev):

   -63.9381 -61.2825 -61.2601 -61.2600 -38.1437 -38.1437 -38.1271 -35.6542
   -35.5267 -35.5267 -35.4959 -35.4446 -35.4445 -35.3799 -35.3606 -35.3606
   -15.0536 -13.9924 -13.1947 -13.0752 -13.0752 -13.0639 -12.8115 -12.8114
    -6.4684  -6.4683  -6.4142  -6.1435  -5.6069  -5.4804  -5.4803  -4.4208
    -4.3983  -4.3983  -3.4560  -3.2021  -3.2020  -2.5945  -2.5858  -2.5858
    -2.5070  -2.3546  -2.3546  -1.4158  -1.4157  -1.3786  -1.3786  -1.2477
    -1.1069  -1.0947  -1.0947  -0.6845   1.2468   1.2469   1.3830   1.5860
     1.7664   1.7665   2.3823   2.3823   2.7103   2.7103

          k = 0.0000 0.1155 0.0000 ( 48801 PWs)   bands (ev):

   -63.9381 -61.2820 -61.2606 -61.2600 -38.1436 -38.1435 -38.1271 -35.6489
   -35.5262 -35.5231 -35.4948 -35.4457 -35.4445 -35.3824 -35.3670 -35.3619
   -15.0173 -13.9716 -13.2270 -13.1120 -13.0800 -13.0742 -12.8361 -12.8107
    -6.4070  -6.4044  -6.3283  -6.0993  -5.5725  -5.4723  -5.4040  -4.4145
    -4.3910  -4.3865  -3.4674  -3.2705  -3.1775  -2.6838  -2.6206  -2.5612
    -2.5598  -2.3535  -2.2884  -1.6389  -1.6296  -1.4695  -1.4068  -1.3240
    -1.1640  -0.9899  -0.9796  -0.6829   1.2564   1.2635   1.3958   1.5624
     1.7305   1.7704   2.2540   2.4228   2.5123   2.6498

          k = 0.0000 0.2309 0.0000 ( 48770 PWs)   bands (ev):

   -63.9381 -61.2806 -61.2620 -61.2600 -38.1434 -38.1430 -38.1271 -35.6342
   -35.5242 -35.5127 -35.4916 -35.4489 -35.4445 -35.3910 -35.3851 -35.3642
   -14.9100 -13.9103 -13.3776 -13.1515 -13.1161 -13.0924 -12.8918 -12.8089
    -6.2418  -6.2337  -6.0768  -5.9683  -5.4890  -5.4497  -5.1717  -4.4204
    -4.3574  -4.3506  -3.5071  -3.4470  -3.1060  -2.9565  -2.8157  -2.4957
    -2.4917  -2.3395  -2.2041  -2.1379  -2.1142  -1.6117  -1.4485  -1.4135
    -1.2597  -0.9385  -0.9007  -0.6928   1.2825   1.2835   1.4132   1.4870
     1.6747   1.7921   1.9793   2.0924   2.4847   2.5227

          k = 0.0000 0.3464 0.0000 ( 48772 PWs)   bands (ev):

   -63.9381 -61.2785 -61.2641 -61.2600 -38.1432 -38.1423 -38.1270 -35.6141
   -35.5187 -35.4965 -35.4869 -35.4537 -35.4445 -35.4127 -35.4063 -35.3657
   -14.7372 -13.8119 -13.6295 -13.2130 -13.1699 -13.1075 -12.9369 -12.8066
    -6.0167  -5.9852  -5.7939  -5.6941  -5.4183  -5.3771  -4.8123  -4.4594
    -4.2978  -4.2855  -3.6663  -3.5746  -3.3490  -3.0855  -2.9948  -2.7350
    -2.6932  -2.3823  -2.3125  -2.3090  -2.1302  -1.7912  -1.5315  -1.5030
    -1.4155  -0.9595  -0.8616  -0.7404   1.2658   1.3144   1.3736   1.4395
     1.6304   1.7070   1.7642   1.8312   2.2339   2.2560

          k = 0.0000 0.4619 0.0000 ( 48764 PWs)   bands (ev):

   -63.9381 -61.2762 -61.2664 -61.2600 -38.1430 -38.1418 -38.1270 -35.5962
   -35.5053 -35.4817 -35.4766 -35.4590 -35.4454 -35.4446 -35.4260 -35.3665
   -14.5094 -13.9219 -13.6838 -13.3552 -13.1807 -13.1196 -12.9570 -12.8047
    -5.7983  -5.7417  -5.5722  -5.3896  -5.3550  -5.2689  -4.4816  -4.3865
    -4.2225  -4.1767  -3.8512  -3.7814  -3.6420  -3.4247  -3.2495  -3.1816
    -2.8679  -2.3054  -2.2461  -2.1590  -2.0523  -1.9288  -1.6917  -1.6061
    -1.5028  -1.0475  -0.8414  -0.8059   1.2181   1.2755   1.3112   1.3998
     1.5416   1.6795   1.7021   1.8611   2.0169   2.0365

          k = 0.0000-0.5774 0.0000 ( 48748 PWs)   bands (ev):

   -63.9381 -61.2750 -61.2676 -61.2600 -38.1430 -38.1416 -38.1270 -35.5892
   -35.4863 -35.4789 -35.4721 -35.4618 -35.4614 -35.4446 -35.4411 -35.3667
   -14.2906 -14.1649 -13.5703 -13.4763 -13.1844 -13.1242 -12.9623 -12.8040
    -5.7007  -5.6335  -5.4544  -5.3777  -5.2307  -5.2206  -4.3656  -4.2392
    -4.0885  -4.0771  -4.0254  -3.8965  -3.7173  -3.6703  -3.5167  -3.4076
    -2.7994  -2.3318  -2.1758  -2.0482  -1.9684  -1.9110  -1.9055  -1.7288
    -1.4352  -1.1362  -0.8349  -0.8324   1.1841   1.2335   1.3034   1.3275
     1.6570   1.6839   1.7030   1.8180   1.9099   2.0687

          k = 0.1000 0.1732 0.0000 ( 48791 PWs)   bands (ev):

   -63.9381 -61.2810 -61.2615 -61.2601 -38.1435 -38.1431 -38.1271 -35.6389
   -35.5254 -35.5157 -35.4926 -35.4478 -35.4446 -35.3895 -35.3764 -35.3650
   -14.9455 -13.9305 -13.2987 -13.2041 -13.0980 -13.0541 -12.8854 -12.8025
    -6.3195  -6.2523  -6.1675  -6.0122  -5.5523  -5.4002  -5.2671  -4.4083
    -4.3787  -4.3618  -3.4975  -3.3638  -3.1646  -2.8676  -2.7486  -2.5139
    -2.5126  -2.3600  -2.2110  -2.1107  -1.7668  -1.5902  -1.5697  -1.3832
    -1.1283  -1.0046  -0.8938  -0.6822   1.2617   1.2816   1.4000   1.5254
     1.6580   1.8171   2.0506   2.2174   2.4788   2.5292

          k = 0.1000 0.2887 0.0000 ( 48778 PWs)   bands (ev):

   -63.9381 -61.2793 -61.2633 -61.2601 -38.1432 -38.1426 -38.1270 -35.6210
   -35.5229 -35.5016 -35.4886 -35.4519 -35.4446 -35.4091 -35.3898 -35.3687
   -14.8054 -13.8506 -13.4835 -13.2957 -13.1583 -13.0209 -12.9588 -12.7864
    -6.1336  -6.0160  -5.8877  -5.8313  -5.5509  -5.2575  -4.9853  -4.4210
    -4.3492  -4.3164  -3.5826  -3.5002  -3.1975  -3.1442  -2.9552  -2.7085
    -2.4508  -2.4188  -2.3150  -2.1598  -2.1053  -1.8029  -1.7203  -1.3813
    -1.2264  -0.9783  -0.8736  -0.6901   1.2477   1.2646   1.3597   1.4845
     1.6016   1.8038   1.8235   1.9193   2.3070   2.3184

          k = 0.1000 0.4041 0.0000 ( 48753 PWs)   bands (ev):

   -63.9381 -61.2770 -61.2655 -61.2601 -38.1430 -38.1421 -38.1270 -35.6005
   -35.5162 -35.4835 -35.4823 -35.4571 -35.4446 -35.4374 -35.4085 -35.3705
   -14.6045 -13.7562 -13.7368 -13.3452 -13.2734 -13.0089 -12.9983 -12.7713
    -5.8882  -5.7699  -5.6474  -5.5461  -5.4966  -5.1074  -4.5892  -4.4664
    -4.2939  -4.2483  -3.7453  -3.6132  -3.6077  -3.2789  -3.2485  -3.0664
    -2.6813  -2.4721  -2.2382  -2.1591  -2.0579  -1.9469  -1.7711  -1.4700
    -1.3549  -1.0000  -0.9023  -0.7012   1.1968   1.2259   1.2814   1.4362
     1.5378   1.6289   1.6724   1.9936   2.0583   2.0911

          k = 0.1000 0.5196 0.0000 ( 48763 PWs)   bands (ev):

   -63.9381 -61.2750 -61.2676 -61.2601 -38.1429 -38.1417 -38.1270 -35.5864
   -35.5013 -35.4789 -35.4698 -35.4618 -35.4582 -35.4446 -35.4299 -35.3711
   -14.3596 -14.0462 -13.6022 -13.4185 -13.3701 -13.0292 -12.9873 -12.7625
    -5.6886  -5.5978  -5.5410  -5.4596  -5.2443  -4.9954  -4.4277  -4.2515
    -4.1766  -4.1432  -4.0158  -3.8727  -3.7096  -3.6658  -3.5889  -3.0135
    -2.9862  -2.5397  -2.1856  -2.1057  -1.9726  -1.8455  -1.8020  -1.6431
    -1.4108  -1.0974  -0.9232  -0.7007   1.1521   1.1928   1.2249   1.2869
     1.6135   1.6343   1.6665   1.8375   1.9575   2.0808

          k = 0.2000 0.3464 0.0000 ( 48776 PWs)   bands (ev):

   -63.9381 -61.2773 -61.2652 -61.2601 -38.1429 -38.1422 -38.1270 -35.6014
   -35.5215 -35.4841 -35.4834 -35.4564 -35.4446 -35.4364 -35.3946 -35.3777
   -14.6369 -13.7550 -13.6017 -13.5088 -13.2186 -13.0640 -12.9459 -12.7486
    -5.9268  -5.7443  -5.6560  -5.6175  -5.5965  -4.9765  -4.7115  -4.4055
    -4.3763  -4.2857  -3.6694  -3.5498  -3.5432  -3.2852  -3.2846  -3.1317
    -2.5743  -2.3695  -2.2359  -2.1041  -2.0908  -2.0015  -1.9300  -1.3491
    -1.2617  -0.9932  -0.9213  -0.6460   1.1539   1.1771   1.2293   1.4590
     1.5561   1.6288   1.6384   2.0445   2.0592   2.1405

          k = 0.2000 0.4619 0.0000 ( 48790 PWs)   bands (ev):

   -63.9381 -61.2750 -61.2676 -61.2601 -38.1427 -38.1419 -38.1270 -35.5810
   -35.5176 -35.4789 -35.4693 -35.4618 -35.4568 -35.4446 -35.4092 -35.3828
   -14.4153 -13.8492 -13.6312 -13.5989 -13.3233 -13.1370 -12.8982 -12.7200
    -5.6673  -5.6615  -5.5365  -5.4318  -5.3130  -4.7313  -4.4425  -4.3691
    -4.3351  -4.2788  -3.9626  -3.7601  -3.7269  -3.6373  -3.4305  -3.2831
    -2.7778  -2.5642  -2.2765  -2.2083  -2.0182  -1.8679  -1.7573  -1.4102
    -1.3442  -1.0461  -0.9644  -0.5893   1.0702   1.0950   1.1298   1.2618
     1.5782   1.5823   1.6266   1.8322   1.8714   2.2761

          k = 0.2000 0.5774 0.0000 ( 48766 PWs)   bands (ev):

   -63.9381 -61.2736 -61.2690 -61.2601 -38.1426 -38.1418 -38.1270 -35.5714
   -35.5119 -35.4839 -35.4756 -35.4651 -35.4446 -35.4409 -35.4255 -35.3838
   -14.2037 -14.0809 -13.6206 -13.5233 -13.4310 -13.1569 -12.8819 -12.7096
    -5.6770  -5.5203  -5.4443  -5.3461  -5.1653  -4.6188  -4.4183  -4.3780
    -4.2947  -4.2224  -4.0637  -3.8839  -3.7886  -3.7111  -3.6355  -3.2859
    -2.8908  -2.6948  -2.3306  -2.1517  -1.9940  -1.7584  -1.6042  -1.5400
    -1.3872  -1.1059  -0.9625  -0.5631   1.0341   1.0661   1.1263   1.1483
     1.5943   1.6126   1.6494   1.7034   1.8297   1.9192

          k = 0.3000 0.5196 0.0000 ( 48786 PWs)   bands (ev):

   -63.9381 -61.2727 -61.2699 -61.2601 -38.1423 -38.1420 -38.1270 -35.5601
   -35.5247 -35.4866 -35.4736 -35.4671 -35.4446 -35.4366 -35.4125 -35.3972
   -14.1889 -13.9286 -13.8335 -13.5109 -13.3736 -13.2499 -12.8448 -12.6893
    -5.7259  -5.4155  -5.3878  -5.2531  -5.1438  -4.6111  -4.4156  -4.3570
    -4.3514  -4.2518  -4.1233  -3.8914  -3.7424  -3.6761  -3.6180  -3.4479
    -3.1020  -2.4365  -2.3831  -2.2470  -2.1255  -1.6513  -1.5714  -1.4439
    -1.3831  -1.1034  -0.9652  -0.4971   0.9711   1.0272   1.0444   1.1048
     1.5466   1.6020   1.6407   1.6787   1.7603   1.8561

     the Fermi energy is    -0.6715 ev

!    total energy              =    -909.66851390 Ry
     Harris-Foulkes estimate   =    -909.66851390 Ry
     estimated scf accuracy    <          4.7E-09 Ry

     The total energy is the sum of the following terms:

     one-electron contribution =   -4151.01100429 Ry
     hartree contribution      =    2079.92286097 Ry
     xc contribution           =    -311.90109283 Ry
     ewald contribution        =    1473.32559595 Ry
     smearing contrib. (-TS)   =      -0.00487370 Ry

     convergence has been achieved in  14 iterations

     negative rho (up, down):  3.924E-04 0.000E+00

     Forces acting on atoms (Ry/au):

     atom    1 type  3   force =     0.00000000    0.00000000    0.00000597
     atom    2 type  1   force =     0.00036757    0.00021222   -0.00000667
     atom    3 type  1   force =     0.00000000   -0.00042443   -0.00000667
     atom    4 type  1   force =    -0.00036757    0.00021222   -0.00000667
     atom    5 type  2   force =    -0.01659590    0.00958165   -0.00673755
     atom    6 type  2   force =    -0.00000000   -0.01916330   -0.00673755
     atom    7 type  2   force =     0.01659590    0.00958165   -0.00673755
     atom    8 type  2   force =     0.00000000    0.00000000    0.01200960
     atom    9 type  2   force =    -0.01659527    0.00958128    0.00674140
     atom   10 type  2   force =    -0.00000000   -0.01916257    0.00674140
     atom   11 type  2   force =     0.01659527    0.00958128    0.00674140
     atom   12 type  2   force =     0.00000000    0.00000000   -0.01200709

     Total force =     0.052581     Total SCF correction =     0.000274


     entering subroutine stress ...


     negative rho (up, down):  3.924E-04 0.000E+00
          total   stress  (Ry/bohr**3)                   (kbar)     P=   -1.75
  -0.00001232   0.00000000   0.00000000         -1.81      0.00      0.00
   0.00000000  -0.00001232   0.00000000          0.00     -1.81      0.00
  -0.00000000  -0.00000000  -0.00001104         -0.00     -0.00     -1.62


     BFGS Geometry Optimization

     number of scf cycles    =   1
     number of bfgs steps    =   0

     energy   new            =    -909.6685138995 Ry

     new trust radius        =       0.0203137988 bohr
     new conv_thr            =       0.0000000100 Ry


ATOMIC_POSITIONS (angstrom)
V        0.000000000   1.875085000   3.183911159
Mo      -1.623676491   4.687824300   3.183904468
Mo       3.247742000   1.874860401   3.183904468
Mo       1.623676491   4.687824300   3.183904468
Se       1.615088826   0.942612390   4.823238640
Se       0.000000000   3.740028219   4.823238640
Se       4.880395174   0.942612390   4.823238640
Se       3.247742000   3.750169000   4.833159206
Se       1.615089162   0.942612197   1.544579396
Se       0.000000000   3.740028607   1.544579396
Se       4.880394838   0.942612197   1.544579396
Se       3.247742000   3.750169000   1.534658122



     Writing output data file mose2_v.save
     Check: negative starting charge=   -0.001214
     NEW-OLD atomic charge density approx. for the potential
     Check: negative starting charge=   -0.001216

     negative rho (up, down):  4.184E-04 0.000E+00

     total cpu time spent up to now is     1092.1 secs

     per-process dynamical memory:   127.3 Mb

     Self-consistent Calculation

     iteration #  1     ecut=    70.00 Ry     beta=0.70
     CG style diagonalization
     c_bands:  1 eigenvalues not converged
     c_bands:  1 eigenvalues not converged
     c_bands:  1 eigenvalues not converged
     c_bands:  4 eigenvalues not converged
     c_bands:  1 eigenvalues not converged
     c_bands:  2 eigenvalues not converged
     c_bands:  1 eigenvalues not converged
     c_bands:  5 eigenvalues not converged
     c_bands:  2 eigenvalues not converged
     ethr =  1.00E-06,  avg # of iterations =  6.5

     negative rho (up, down):  3.958E-04 0.000E+00

     total cpu time spent up to now is     1223.5 secs

     total energy              =    -909.67056512 Ry
     Harris-Foulkes estimate   =    -909.67090300 Ry
     estimated scf accuracy    <       0.00040642 Ry

     iteration #  2     ecut=    70.00 Ry     beta=0.70
     CG style diagonalization
     ethr =  3.95E-07,  avg # of iterations =  4.6

     negative rho (up, down):  3.958E-04 0.000E+00

     total cpu time spent up to now is     1303.2 secs

     total energy              =    -909.66896940 Ry
     Harris-Foulkes estimate   =    -909.67297721 Ry
     estimated scf accuracy    <       0.03104954 Ry

     iteration #  3     ecut=    70.00 Ry     beta=0.70
     CG style diagonalization
     ethr =  3.95E-07,  avg # of iterations =  4.1

     negative rho (up, down):  3.935E-04 0.000E+00

     total cpu time spent up to now is     1373.4 secs

     total energy              =    -909.67090601 Ry
     Harris-Foulkes estimate   =    -909.67092554 Ry
     estimated scf accuracy    <       0.00005682 Ry

     iteration #  4     ecut=    70.00 Ry     beta=0.70
     CG style diagonalization
     ethr =  5.52E-08,  avg # of iterations =  3.8

     negative rho (up, down):  3.933E-04 0.000E+00

     total cpu time spent up to now is     1437.0 secs

     total energy              =    -909.67092126 Ry
     Harris-Foulkes estimate   =    -909.67093440 Ry
     estimated scf accuracy    <       0.00006040 Ry

     iteration #  5     ecut=    70.00 Ry     beta=0.70
     CG style diagonalization
     ethr =  5.52E-08,  avg # of iterations =  3.2

     negative rho (up, down):  3.932E-04 0.000E+00

     total cpu time spent up to now is     1489.2 secs

     total energy              =    -909.67092703 Ry
     Harris-Foulkes estimate   =    -909.67092797 Ry
     estimated scf accuracy    <       0.00000559 Ry

     iteration #  6     ecut=    70.00 Ry     beta=0.70
     CG style diagonalization
     ethr =  5.42E-09,  avg # of iterations =  3.7

     negative rho (up, down):  3.932E-04 0.000E+00

     total cpu time spent up to now is     1551.7 secs

     total energy              =    -909.67092827 Ry
     Harris-Foulkes estimate   =    -909.67092865 Ry
     estimated scf accuracy    <       0.00000132 Ry

     iteration #  7     ecut=    70.00 Ry     beta=0.70
     CG style diagonalization
     ethr =  1.28E-09,  avg # of iterations =  4.4

     negative rho (up, down):  3.932E-04 0.000E+00

     total cpu time spent up to now is     1626.8 secs

     total energy              =    -909.67092892 Ry
     Harris-Foulkes estimate   =    -909.67092913 Ry
     estimated scf accuracy    <       0.00000093 Ry

     iteration #  8     ecut=    70.00 Ry     beta=0.70
     CG style diagonalization
     ethr =  9.01E-10,  avg # of iterations =  3.5

     negative rho (up, down):  3.932E-04 0.000E+00

     total cpu time spent up to now is     1685.0 secs

     total energy              =    -909.67092906 Ry
     Harris-Foulkes estimate   =    -909.67092909 Ry
     estimated scf accuracy    <       0.00000011 Ry

     iteration #  9     ecut=    70.00 Ry     beta=0.70
     CG style diagonalization
     ethr =  1.04E-10,  avg # of iterations =  4.9

     negative rho (up, down):  3.932E-04 0.000E+00

     total cpu time spent up to now is     1771.5 secs

     total energy              =    -909.67092916 Ry
     Harris-Foulkes estimate   =    -909.67092916 Ry
     estimated scf accuracy    <       0.00000001 Ry

     iteration # 10     ecut=    70.00 Ry     beta=0.70
     CG style diagonalization
     ethr =  1.22E-11,  avg # of iterations =  5.7

     negative rho (up, down):  3.932E-04 0.000E+00

     total cpu time spent up to now is     1873.1 secs

     End of self-consistent calculation

          k = 0.0000 0.0000 0.0000 ( 48761 PWs)   bands (ev):

   -63.9305 -61.2822 -61.2599 -61.2599 -38.1375 -38.1375 -38.1272 -35.6483
   -35.5274 -35.5273 -35.4925 -35.4416 -35.4415 -35.3825 -35.3577 -35.3577
   -15.0540 -13.9936 -13.1894 -13.0817 -13.0816 -13.0515 -12.8147 -12.8147
    -6.4696  -6.4696  -6.4057  -6.1411  -5.6147  -5.4754  -5.4754  -4.4351
    -4.3934  -4.3934  -3.4541  -3.1908  -3.1908  -2.5988  -2.5889  -2.5889
    -2.4913  -2.3522  -2.3522  -1.4332  -1.4332  -1.3936  -1.3936  -1.2551
    -1.1077  -1.0833  -1.0833  -0.6786   1.2494   1.2495   1.3837   1.5934
     1.7686   1.7686   2.3920   2.3920   2.7098   2.7099

          k = 0.0000 0.1155 0.0000 ( 48801 PWs)   bands (ev):

   -63.9305 -61.2818 -61.2604 -61.2599 -38.1375 -38.1373 -38.1272 -35.6430
   -35.5268 -35.5238 -35.4914 -35.4427 -35.4416 -35.3850 -35.3640 -35.3590
   -15.0176 -13.9729 -13.2223 -13.1178 -13.0864 -13.0627 -12.8384 -12.8139
    -6.4078  -6.4038  -6.3217  -6.0972  -5.5756  -5.4683  -5.4033  -4.4253
    -4.3891  -4.3821  -3.4647  -3.2585  -3.1653  -2.6873  -2.6311  -2.5623
    -2.5445  -2.3507  -2.2854  -1.6475  -1.6358  -1.4874  -1.4217  -1.3266
    -1.1660  -0.9893  -0.9771  -0.6762   1.2597   1.2658   1.3960   1.5707
     1.7313   1.7732   2.2629   2.4336   2.5118   2.6492

          k = 0.0000 0.2309 0.0000 ( 48770 PWs)   bands (ev):

   -63.9305 -61.2804 -61.2618 -61.2599 -38.1373 -38.1368 -38.1272 -35.6285
   -35.5247 -35.5134 -35.4883 -35.4459 -35.4416 -35.3933 -35.3823 -35.3616
   -14.9101 -13.9118 -13.3768 -13.1535 -13.1079 -13.0990 -12.8905 -12.8120
    -6.2388  -6.2331  -6.0713  -5.9689  -5.4849  -5.4482  -5.1768  -4.4221
    -4.3629  -4.3476  -3.5014  -3.4342  -3.0922  -2.9609  -2.8232  -2.4913
    -2.4912  -2.3352  -2.2016  -2.1414  -2.1195  -1.6308  -1.4502  -1.4229
    -1.2614  -0.9422  -0.9033  -0.6857   1.2852   1.2882   1.4119   1.4952
     1.6747   1.7965   1.9892   2.0914   2.4839   2.5371

          k = 0.0000 0.3464 0.0000 ( 48772 PWs)   bands (ev):

   -63.9305 -61.2783 -61.2639 -61.2599 -38.1371 -38.1362 -38.1272 -35.6086
   -35.5187 -35.4973 -35.4836 -35.4507 -35.4416 -35.4100 -35.4080 -35.3636
   -14.7369 -13.8139 -13.6306 -13.2091 -13.1703 -13.1142 -12.9308 -12.8096
    -6.0124  -5.9823  -5.7852  -5.7017  -5.4202  -5.3676  -4.8207  -4.4599
    -4.3009  -4.2847  -3.6545  -3.5642  -3.3545  -3.0965  -2.9791  -2.7349
    -2.6937  -2.3835  -2.3168  -2.3033  -2.1271  -1.8120  -1.5323  -1.5072
    -1.4164  -0.9644  -0.8663  -0.7350   1.2697   1.3189   1.3803   1.4381
     1.6365   1.7000   1.7768   1.8374   2.2497   2.2545

          k = 0.0000 0.4619 0.0000 ( 48764 PWs)   bands (ev):

   -63.9305 -61.2760 -61.2662 -61.2599 -38.1369 -38.1357 -38.1271 -35.5914
   -35.5040 -35.4784 -35.4776 -35.4559 -35.4434 -35.4416 -35.4272 -35.3646
   -14.5080 -13.9246 -13.6869 -13.3528 -13.1806 -13.1264 -12.9483 -12.8077
    -5.7931  -5.7359  -5.5652  -5.3945  -5.3663  -5.2549  -4.4828  -4.3961
    -4.2178  -4.1781  -3.8438  -3.7876  -3.6274  -3.4367  -3.2530  -3.1823
    -2.8477  -2.3046  -2.2534  -2.1595  -2.0473  -1.9475  -1.6914  -1.6073
    -1.5015  -1.0526  -0.8468  -0.8040   1.2216   1.2833   1.3128   1.4013
     1.5446   1.6767   1.7235   1.8678   2.0138   2.0429

          k = 0.0000-0.5774 0.0000 ( 48748 PWs)   bands (ev):

   -63.9305 -61.2748 -61.2674 -61.2599 -38.1368 -38.1355 -38.1271 -35.5848
   -35.4812 -35.4756 -35.4734 -35.4627 -35.4587 -35.4420 -35.4416 -35.3649
   -14.2798 -14.1771 -13.5785 -13.4695 -13.1843 -13.1310 -12.9530 -12.8069
    -5.6953  -5.6261  -5.4442  -5.3839  -5.2484  -5.2047  -4.3670  -4.2331
    -4.0871  -4.0793  -4.0259  -3.9110  -3.7211  -3.6540  -3.5217  -3.4115
    -2.7742  -2.3396  -2.1861  -2.0464  -1.9828  -1.9163  -1.8919  -1.7315
    -1.4310  -1.1431  -0.8403  -0.8321   1.1868   1.2415   1.3041   1.3296
     1.6683   1.6813   1.7345   1.8113   1.9131   2.0668

          k = 0.1000 0.1732 0.0000 ( 48791 PWs)   bands (ev):

   -63.9305 -61.2808 -61.2613 -61.2599 -38.1373 -38.1370 -38.1272 -35.6331
   -35.5259 -35.5165 -35.4893 -35.4448 -35.4416 -35.3913 -35.3744 -35.3620
   -14.9457 -13.9320 -13.2943 -13.2114 -13.0884 -13.0590 -12.8862 -12.8051
    -6.3178  -6.2518  -6.1620  -6.0114  -5.5502  -5.3964  -5.2721  -4.4128
    -4.3795  -4.3609  -3.4923  -3.3519  -3.1511  -2.8717  -2.7553  -2.5135
    -2.5074  -2.3560  -2.2085  -2.1152  -1.7739  -1.6089  -1.5689  -1.3943
    -1.1319  -1.0048  -0.8968  -0.6750   1.2660   1.2843   1.3987   1.5344
     1.6586   1.8201   2.0606   2.2165   2.4920   2.5286

          k = 0.1000 0.2887 0.0000 ( 48778 PWs)   bands (ev):

   -63.9305 -61.2791 -61.2631 -61.2599 -38.1371 -38.1364 -38.1272 -35.6153
   -35.5232 -35.5023 -35.4853 -35.4489 -35.4416 -35.4087 -35.3897 -35.3660
   -14.8053 -13.8524 -13.4827 -13.3005 -13.1528 -13.0250 -12.9559 -12.7881
    -6.1304  -6.0128  -5.8773  -5.8397  -5.5482  -5.2514  -4.9945  -4.4213
    -4.3509  -4.3182  -3.5712  -3.4909  -3.2025  -3.1304  -2.9645  -2.7080
    -2.4490  -2.4218  -2.3091  -2.1626  -2.1031  -1.8226  -1.7226  -1.3879
    -1.2254  -0.9839  -0.8777  -0.6842   1.2548   1.2680   1.3557   1.4925
     1.6043   1.8145   1.8206   1.9229   2.3175   2.3254

          k = 0.1000 0.4041 0.0000 ( 48753 PWs)   bands (ev):

   -63.9305 -61.2768 -61.2654 -61.2599 -38.1369 -38.1359 -38.1271 -35.5952
   -35.5157 -35.4831 -35.4802 -35.4540 -35.4416 -35.4362 -35.4090 -35.3683
   -14.6038 -13.7575 -13.7392 -13.3489 -13.2714 -13.0024 -13.0020 -12.7724
    -5.8832  -5.7633  -5.6423  -5.5443  -5.5054  -5.0997  -4.5995  -4.4673
    -4.2934  -4.2494  -3.7351  -3.6188  -3.5949  -3.2808  -3.2604  -3.0501
    -2.6820  -2.4724  -2.2393  -2.1607  -2.0673  -1.9491  -1.7732  -1.4734
    -1.3523  -1.0063  -0.9064  -0.6987   1.2034   1.2309   1.2780   1.4450
     1.5388   1.6258   1.6871   1.9974   2.0719   2.0897

          k = 0.1000 0.5196 0.0000 ( 48763 PWs)   bands (ev):

   -63.9305 -61.2748 -61.2674 -61.2599 -38.1367 -38.1356 -38.1271 -35.5819
   -35.4989 -35.4756 -35.4700 -35.4587 -35.4587 -35.4416 -35.4304 -35.3692
   -14.3561 -14.0507 -13.6068 -13.4158 -13.3735 -13.0215 -12.9909 -12.7632
    -5.6821  -5.5894  -5.5402  -5.4523  -5.2600  -4.9864  -4.4289  -4.2461
    -4.1831  -4.1442  -4.0187  -3.8729  -3.7167  -3.6525  -3.5955  -3.0149
    -2.9634  -2.5506  -2.2026  -2.1051  -1.9694  -1.8394  -1.8035  -1.6469
    -1.4063  -1.1041  -0.9287  -0.7005   1.1563   1.1999   1.2228   1.2908
     1.6210   1.6329   1.6941   1.8328   1.9580   2.0841

          k = 0.2000 0.3464 0.0000 ( 48776 PWs)   bands (ev):

   -63.9305 -61.2771 -61.2651 -61.2599 -38.1368 -38.1360 -38.1271 -35.5960
   -35.5214 -35.4842 -35.4809 -35.4534 -35.4416 -35.4355 -35.3957 -35.3747
   -14.6364 -13.7572 -13.5966 -13.5189 -13.2173 -13.0577 -12.9494 -12.7490
    -5.9219  -5.7317  -5.6541  -5.6153  -5.6074  -4.9650  -4.7259  -4.4060
    -4.3763  -4.2882  -3.6567  -3.5548  -3.5339  -3.2863  -3.2721  -3.1408
    -2.5736  -2.3735  -2.2295  -2.1170  -2.0933  -2.0085  -1.9274  -1.3524
    -1.2563  -1.0026  -0.9248  -0.6426   1.1651   1.1794   1.2222   1.4714
     1.5598   1.6201   1.6506   2.0468   2.0758   2.1410

          k = 0.2000 0.4619 0.0000 ( 48790 PWs)   bands (ev):

   -63.9305 -61.2748 -61.2674 -61.2599 -38.1365 -38.1358 -38.1271 -35.5760
   -35.5162 -35.4756 -35.4695 -35.4587 -35.4572 -35.4416 -35.4100 -35.3802
   -14.4135 -13.8496 -13.6342 -13.6050 -13.3249 -13.1273 -12.9015 -12.7197
    -5.6598  -5.6597  -5.5196  -5.4335  -5.3271  -4.7208  -4.4443  -4.3676
    -4.3466  -4.2800  -3.9656  -3.7532  -3.7328  -3.6240  -3.4342  -3.2706
    -2.7890  -2.5637  -2.2902  -2.2073  -2.0216  -1.8664  -1.7521  -1.4110
    -1.3369  -1.0537  -0.9719  -0.5872   1.0771   1.0992   1.1245   1.2681
     1.5857   1.6009   1.6211   1.8322   1.8812   2.2785

          k = 0.2000 0.5774 0.0000 ( 48766 PWs)   bands (ev):

   -63.9305 -61.2734 -61.2688 -61.2599 -38.1364 -38.1357 -38.1271 -35.5668
   -35.5078 -35.4860 -35.4724 -35.4619 -35.4422 -35.4416 -35.4254 -35.3815
   -14.1931 -14.0910 -13.6259 -13.5289 -13.4307 -13.1469 -12.8852 -12.7091
    -5.6754  -5.5095  -5.4290  -5.3439  -5.1856  -4.6098  -4.4259  -4.3686
    -4.2899  -4.2315  -4.0610  -3.8914  -3.8063  -3.7079  -3.6199  -3.2642
    -2.9120  -2.6937  -2.3408  -2.1523  -1.9949  -1.7582  -1.5930  -1.5448
    -1.3787  -1.1145  -0.9709  -0.5612   1.0392   1.0657   1.1227   1.1577
     1.6184   1.6255   1.6513   1.6985   1.8258   1.9117

          k = 0.3000 0.5196 0.0000 ( 48786 PWs)   bands (ev):

   -63.9305 -61.2725 -61.2697 -61.2599 -38.1362 -38.1358 -38.1271 -35.5552
   -35.5210 -35.4886 -35.4704 -35.4639 -35.4416 -35.4378 -35.4140 -35.3932
   -14.1834 -13.9222 -13.8503 -13.5137 -13.3851 -13.2312 -12.8480 -12.6886
    -5.7242  -5.4024  -5.3671  -5.2500  -5.1703  -4.6173  -4.4029  -4.3588
    -4.3471  -4.2580  -4.1251  -3.8974  -3.7365  -3.6853  -3.5913  -3.4444
    -3.1258  -2.4304  -2.3915  -2.2506  -2.1280  -1.6558  -1.5627  -1.4408
    -1.3725  -1.1128  -0.9745  -0.4944   0.9740   1.0257   1.0461   1.1112
     1.5754   1.6079   1.6367   1.6794   1.7585   1.8485

     the Fermi energy is    -0.6683 ev

!    total energy              =    -909.67092918 Ry
     Harris-Foulkes estimate   =    -909.67092918 Ry
     estimated scf accuracy    <          1.8E-09 Ry

     The total energy is the sum of the following terms:

     one-electron contribution =   -4152.05329194 Ry
     hartree contribution      =    2080.44531903 Ry
     xc contribution           =    -311.90286490 Ry
     ewald contribution        =    1473.84472776 Ry
     smearing contrib. (-TS)   =      -0.00481913 Ry

     convergence has been achieved in  10 iterations

     negative rho (up, down):  3.932E-04 0.000E+00

     Forces acting on atoms (Ry/au):

     atom    1 type  3   force =     0.00000000    0.00000000    0.00000267
     atom    2 type  1   force =    -0.00185525   -0.00107113    0.00000114
     atom    3 type  1   force =    -0.00000000    0.00214226    0.00000114
     atom    4 type  1   force =     0.00185525   -0.00107113    0.00000114
     atom    5 type  2   force =    -0.01248807    0.00720999   -0.00548380
     atom    6 type  2   force =    -0.00000000   -0.01441998   -0.00548380
     atom    7 type  2   force =     0.01248807    0.00720999   -0.00548380
     atom    8 type  2   force =     0.00000000    0.00000000    0.00796466
     atom    9 type  2   force =    -0.01248782    0.00720985    0.00548206
     atom   10 type  2   force =    -0.00000000   -0.01441969    0.00548206
     atom   11 type  2   force =     0.01248782    0.00720985    0.00548206
     atom   12 type  2   force =     0.00000000    0.00000000   -0.00796552

     Total force =     0.039606     Total SCF correction =     0.000198


     entering subroutine stress ...


     negative rho (up, down):  3.932E-04 0.000E+00
          total   stress  (Ry/bohr**3)                   (kbar)     P=   -1.88
  -0.00001330   0.00000000   0.00000000         -1.96      0.00      0.00
   0.00000000  -0.00001330   0.00000000          0.00     -1.96      0.00
   0.00000000   0.00000000  -0.00001167          0.00      0.00     -1.72


     number of scf cycles    =   2
     number of bfgs steps    =   1

     energy   old            =    -909.6685138995 Ry
     energy   new            =    -909.6709291780 Ry

     CASE: energy  _new < energy  _old

     new trust radius        =       0.0223451787 bohr
     new conv_thr            =       0.0000000014 Ry


ATOMIC_POSITIONS (angstrom)
V       -0.000000000   1.875085000   3.183913257
Mo      -1.625034775   4.687040094   3.183905157
Mo       3.247742000   1.876428812   3.183905157
Mo       1.625034775   4.687040094   3.183905157
Se       1.605513642   0.948140626   4.819046426
Se       0.000000000   3.728971749   4.819046426
Se       4.889970358   0.948140626   4.819046426
Se       3.247742000   3.750169000   4.839298383
Se       1.605514178   0.948140316   1.548770415
Se       0.000000000   3.728972368   1.548770415
Se       4.889969822   0.948140316   1.548770415
Se       3.247742000   3.750169000   1.528518367



     Writing output data file mose2_v.save
     Check: negative starting charge=   -0.001216
     NEW-OLD atomic charge density approx. for the potential
     Check: negative starting charge=   -0.001217

     negative rho (up, down):  4.247E-04 0.000E+00

     total cpu time spent up to now is     1909.5 secs

     per-process dynamical memory:   127.3 Mb

     Self-consistent Calculation

     iteration #  1     ecut=    70.00 Ry     beta=0.70
     CG style diagonalization
     c_bands:  1 eigenvalues not converged
     c_bands:  1 eigenvalues not converged
     c_bands:  1 eigenvalues not converged
     c_bands:  3 eigenvalues not converged
     c_bands:  1 eigenvalues not converged
     c_bands:  1 eigenvalues not converged
     c_bands:  2 eigenvalues not converged
     c_bands:  3 eigenvalues not converged
     c_bands:  4 eigenvalues not converged
     c_bands:  2 eigenvalues not converged
     c_bands:  5 eigenvalues not converged
     ethr =  1.00E-06,  avg # of iterations =  7.2

     negative rho (up, down):  3.977E-04 0.000E+00

     total cpu time spent up to now is     2056.0 secs

     total energy              =    -909.67229401 Ry
     Harris-Foulkes estimate   =    -909.67280062 Ry
     estimated scf accuracy    <       0.00060255 Ry

     iteration #  2     ecut=    70.00 Ry     beta=0.70
     CG style diagonalization
     ethr =  5.85E-07,  avg # of iterations =  4.6

     negative rho (up, down):  3.986E-04 0.000E+00

     total cpu time spent up to now is     2137.0 secs

     total energy              =    -909.66992778 Ry
     Harris-Foulkes estimate   =    -909.67592737 Ry
     estimated scf accuracy    <       0.04632605 Ry

     iteration #  3     ecut=    70.00 Ry     beta=0.70
     CG style diagonalization
     ethr =  5.85E-07,  avg # of iterations =  4.2

     negative rho (up, down):  3.959E-04 0.000E+00

     total cpu time spent up to now is     2209.0 secs

     total energy              =    -909.67278437 Ry
     Harris-Foulkes estimate   =    -909.67279709 Ry
     estimated scf accuracy    <       0.00002374 Ry

     iteration #  4     ecut=    70.00 Ry     beta=0.70
     CG style diagonalization
     ethr =  2.31E-08,  avg # of iterations =  4.3

     negative rho (up, down):  3.957E-04 0.000E+00

     total cpu time spent up to now is     2284.0 secs

     total energy              =    -909.67280067 Ry
     Harris-Foulkes estimate   =    -909.67281444 Ry
     estimated scf accuracy    <       0.00005846 Ry

     iteration #  5     ecut=    70.00 Ry     beta=0.70
     CG style diagonalization
     ethr =  2.31E-08,  avg # of iterations =  3.5

     negative rho (up, down):  3.956E-04 0.000E+00

     total cpu time spent up to now is     2342.8 secs

     total energy              =    -909.67280635 Ry
     Harris-Foulkes estimate   =    -909.67280944 Ry
     estimated scf accuracy    <       0.00001455 Ry

     iteration #  6     ecut=    70.00 Ry     beta=0.70
     CG style diagonalization
     ethr =  1.41E-08,  avg # of iterations =  3.3

     negative rho (up, down):  3.955E-04 0.000E+00

     total cpu time spent up to now is     2397.3 secs

     total energy              =    -909.67280804 Ry
     Harris-Foulkes estimate   =    -909.67280831 Ry
     estimated scf accuracy    <       0.00000137 Ry

     iteration #  7     ecut=    70.00 Ry     beta=0.70
     CG style diagonalization
     ethr =  1.33E-09,  avg # of iterations =  4.3

     negative rho (up, down):  3.955E-04 0.000E+00

     total cpu time spent up to now is     2471.6 secs

     total energy              =    -909.67280859 Ry
     Harris-Foulkes estimate   =    -909.67280880 Ry
     estimated scf accuracy    <       0.00000098 Ry

     iteration #  8     ecut=    70.00 Ry     beta=0.70
     CG style diagonalization
     ethr =  9.49E-10,  avg # of iterations =  3.4

     negative rho (up, down):  3.955E-04 0.000E+00

     total cpu time spent up to now is     2529.0 secs

     total energy              =    -909.67280877 Ry
     Harris-Foulkes estimate   =    -909.67280878 Ry
     estimated scf accuracy    <       0.00000003 Ry

     iteration #  9     ecut=    70.00 Ry     beta=0.70
     CG style diagonalization
     ethr =  3.36E-11,  avg # of iterations =  6.5

     negative rho (up, down):  3.954E-04 0.000E+00

     total cpu time spent up to now is     2646.8 secs

     total energy              =    -909.67280889 Ry
     Harris-Foulkes estimate   =    -909.67280889 Ry
     estimated scf accuracy    <          5.4E-09 Ry

     iteration # 10     ecut=    70.00 Ry     beta=0.70
     CG style diagonalization
     ethr =  5.26E-12,  avg # of iterations =  5.4

     negative rho (up, down):  3.954E-04 0.000E+00

     total cpu time spent up to now is     2742.1 secs

     End of self-consistent calculation

          k = 0.0000 0.0000 0.0000 ( 48761 PWs)   bands (ev):

   -63.9226 -61.2822 -61.2599 -61.2598 -38.1313 -38.1313 -38.1279 -35.6441
   -35.5279 -35.5279 -35.4891 -35.4385 -35.4385 -35.3845 -35.3556 -35.3556
   -15.0578 -13.9969 -13.1888 -13.0890 -13.0889 -13.0442 -12.8171 -12.8170
    -6.4736  -6.4736  -6.3979  -6.1412  -5.6220  -5.4723  -5.4723  -4.4539
    -4.3884  -4.3883  -3.4499  -3.1848  -3.1848  -2.6126  -2.5943  -2.5943
    -2.4696  -2.3461  -2.3461  -1.4527  -1.4527  -1.4130  -1.4130  -1.2614
    -1.1117  -1.0697  -1.0696  -0.6733   1.2507   1.2507   1.3871   1.6006
     1.7681   1.7682   2.4021   2.4022   2.7113   2.7113

          k = 0.0000 0.1155 0.0000 ( 48801 PWs)   bands (ev):

   -63.9226 -61.2817 -61.2604 -61.2599 -38.1313 -38.1311 -38.1279 -35.6389
   -35.5273 -35.5243 -35.4880 -35.4396 -35.4385 -35.3870 -35.3620 -35.3569
   -15.0214 -13.9763 -13.2226 -13.1241 -13.0938 -13.0564 -12.8396 -12.8163
    -6.4115  -6.4061  -6.3160  -6.0976  -5.5791  -5.4662  -5.4037  -4.4423
    -4.3854  -4.3775  -3.4597  -3.2517  -3.1584  -2.6930  -2.6464  -2.5671
    -2.5261  -2.3439  -2.2793  -1.6592  -1.6449  -1.5073  -1.4382  -1.3290
    -1.1694  -0.9866  -0.9761  -0.6701   1.2617   1.2666   1.3995   1.5789
     1.7298   1.7733   2.2729   2.4447   2.5132   2.6506

          k = 0.0000 0.2309 0.0000 ( 48770 PWs)   bands (ev):

   -63.9226 -61.2803 -61.2618 -61.2599 -38.1311 -38.1306 -38.1279 -35.6244
   -35.5251 -35.5140 -35.4849 -35.4428 -35.4385 -35.3951 -35.3802 -35.3597
   -14.9139 -13.9155 -13.3801 -13.1568 -13.1064 -13.1049 -12.8879 -12.8142
    -6.2380  -6.2355  -6.0688  -5.9707  -5.4817  -5.4490  -5.1829  -4.4286
    -4.3683  -4.3444  -3.4933  -3.4265  -3.0836  -2.9672  -2.8320  -2.4929
    -2.4879  -2.3267  -2.1970  -2.1474  -2.1268  -1.6519  -1.4519  -1.4330
    -1.2651  -0.9440  -0.9089  -0.6789   1.2857   1.2917   1.4147   1.5028
     1.6734   1.7982   1.9996   2.0924   2.4850   2.5523

          k = 0.0000 0.3464 0.0000 ( 48772 PWs)   bands (ev):

   -63.9226 -61.2782 -61.2639 -61.2599 -38.1308 -38.1300 -38.1279 -35.6049
   -35.5187 -35.4979 -35.4802 -35.4475 -35.4385 -35.4095 -35.4081 -35.3619
   -14.7404 -13.8184 -13.6349 -13.2093 -13.1727 -13.1218 -12.9241 -12.8117
    -6.0102  -5.9826  -5.7822  -5.7085  -5.4248  -5.3591  -4.8305  -4.4623
    -4.3074  -4.2834  -3.6476  -3.5514  -3.3614  -3.1081  -2.9683  -2.7351
    -2.6964  -2.3868  -2.3242  -2.2933  -2.1224  -1.8344  -1.5327  -1.5108
    -1.4198  -0.9679  -0.8750  -0.7293   1.2711   1.3234   1.3855   1.4406
     1.6454   1.6925   1.7891   1.8410   2.2548   2.2700

          k = 0.0000 0.4619 0.0000 ( 48764 PWs)   bands (ev):

   -63.9226 -61.2760 -61.2661 -61.2599 -38.1307 -38.1294 -38.1279 -35.5882
   -35.5033 -35.4782 -35.4751 -35.4527 -35.4418 -35.4385 -35.4285 -35.3632
   -14.5108 -13.9297 -13.6932 -13.3527 -13.1826 -13.1341 -12.9399 -12.8097
    -5.7903  -5.7335  -5.5630  -5.4026  -5.3776  -5.2421  -4.4863  -4.4083
    -4.2173  -4.1788  -3.8401  -3.7946  -3.6104  -3.4492  -3.2568  -3.1847
    -2.8320  -2.3020  -2.2630  -2.1628  -2.0417  -1.9653  -1.6891  -1.6117
    -1.4992  -1.0580  -0.8565  -0.8005   1.2230   1.2868   1.3164   1.4077
     1.5501   1.6737   1.7450   1.8718   2.0128   2.0531

          k = 0.0000-0.5774 0.0000 ( 48748 PWs)   bands (ev):

   -63.9226 -61.2747 -61.2674 -61.2599 -38.1306 -38.1292 -38.1279 -35.5819
   -35.4774 -35.4745 -35.4723 -35.4632 -35.4555 -35.4433 -35.4385 -35.3635
   -14.2761 -14.1888 -13.5911 -13.4635 -13.1862 -13.1388 -12.9441 -12.8089
    -5.6924  -5.6224  -5.4386  -5.3934  -5.2659  -5.1899  -4.3758  -4.2259
    -4.0958  -4.0805  -4.0287  -3.9201  -3.7272  -3.6354  -3.5271  -3.4164
    -2.7525  -2.3485  -2.1986  -2.0470  -1.9941  -1.9259  -1.8715  -1.7379
    -1.4245  -1.1522  -0.8501  -0.8297   1.1880   1.2438   1.3072   1.3373
     1.6786   1.6843   1.7694   1.8003   1.9173   2.0632

          k = 0.1000 0.1732 0.0000 ( 48791 PWs)   bands (ev):

   -63.9226 -61.2808 -61.2613 -61.2599 -38.1311 -38.1308 -38.1279 -35.6290
   -35.5264 -35.5170 -35.4859 -35.4417 -35.4385 -35.3929 -35.3727 -35.3599
   -14.9494 -13.9356 -13.2955 -13.2182 -13.0842 -13.0650 -12.8853 -12.8069
    -6.3185  -6.2544  -6.1583  -6.0125  -5.5493  -5.3946  -5.2779  -4.4246
    -4.3787  -4.3587  -3.4851  -3.3448  -3.1429  -2.8777  -2.7640  -2.5167
    -2.5019  -2.3477  -2.2035  -2.1216  -1.7850  -1.6296  -1.5666  -1.4063
    -1.1377  -1.0047  -0.9005  -0.6682   1.2690   1.2852   1.4011   1.5429
     1.6574   1.8205   2.0706   2.2176   2.5066   2.5298

          k = 0.1000 0.2887 0.0000 ( 48778 PWs)   bands (ev):

   -63.9226 -61.2790 -61.2631 -61.2599 -38.1309 -38.1302 -38.1279 -35.6114
   -35.5235 -35.5029 -35.4820 -35.4457 -35.4385 -35.4089 -35.3894 -35.3641
   -14.8089 -13.8565 -13.4863 -13.3056 -13.1525 -13.0304 -12.9511 -12.7892
    -6.1293  -6.0132  -5.8715  -5.8475  -5.5474  -5.2470  -5.0048  -4.4246
    -4.3543  -4.3199  -3.5611  -3.4828  -3.2089  -3.1217  -2.9742  -2.7092
    -2.4475  -2.4265  -2.3008  -2.1684  -2.0990  -1.8441  -1.7249  -1.3947
    -1.2261  -0.9898  -0.8834  -0.6785   1.2591   1.2709   1.3548   1.4994
     1.6066   1.8213   1.8250   1.9236   2.3184   2.3477

          k = 0.1000 0.4041 0.0000 ( 48753 PWs)   bands (ev):

   -63.9226 -61.2768 -61.2653 -61.2599 -38.1306 -38.1297 -38.1279 -35.5917
   -35.5155 -35.4837 -35.4769 -35.4509 -35.4385 -35.4355 -35.4094 -35.3667
   -14.6070 -13.7620 -13.7445 -13.3536 -13.2729 -13.0073 -12.9950 -12.7729
    -5.8803  -5.7608  -5.6418  -5.5451  -5.5138  -5.0938  -4.6114  -4.4699
    -4.2950  -4.2517  -3.7293  -3.6252  -3.5800  -3.2841  -3.2730  -3.0378
    -2.6836  -2.4715  -2.2432  -2.1661  -2.0745  -1.9492  -1.7764  -1.4760
    -1.3509  -1.0125  -0.9131  -0.6965   1.2055   1.2368   1.2761   1.4558
     1.5405   1.6240   1.7014   1.9995   2.0898   2.0900

          k = 0.1000 0.5196 0.0000 ( 48763 PWs)   bands (ev):

   -63.9226 -61.2747 -61.2674 -61.2599 -38.1305 -38.1293 -38.1279 -35.5789
   -35.4974 -35.4723 -35.4694 -35.4594 -35.4555 -35.4385 -35.4310 -35.3678
   -14.3577 -14.0569 -13.6154 -13.4147 -13.3782 -13.0134 -12.9960 -12.7634
    -5.6779  -5.5854  -5.5423  -5.4495  -5.2755  -4.9789  -4.4342  -4.2429
    -4.1944  -4.1456  -4.0213  -3.8746  -3.7251  -3.6414  -3.5985  -3.0168
    -2.9437  -2.5625  -2.2199  -2.1066  -1.9647  -1.8342  -1.8076  -1.6477
    -1.4013  -1.1124  -0.9359  -0.7008   1.1569   1.2041   1.2205   1.3023
     1.6269   1.6340   1.7231   1.8292   1.9611   2.0869

          k = 0.2000 0.3464 0.0000 ( 48776 PWs)   bands (ev):

   -63.9226 -61.2771 -61.2650 -61.2599 -38.1306 -38.1298 -38.1279 -35.5922
   -35.5214 -35.4846 -35.4775 -35.4502 -35.4385 -35.4351 -35.3965 -35.3724
   -14.6397 -13.7622 -13.5990 -13.5258 -13.2214 -13.0484 -12.9545 -12.7491
    -5.9189  -5.7247  -5.6581  -5.6154  -5.6153  -4.9554  -4.7420  -4.4098
    -4.3757  -4.2928  -3.6469  -3.5605  -3.5242  -3.2900  -3.2643  -3.1495
    -2.5712  -2.3780  -2.2262  -2.1408  -2.0858  -2.0164  -1.9237  -1.3553
    -1.2518  -1.0133  -0.9296  -0.6396   1.1718   1.1815   1.2185   1.4845
     1.5619   1.6156   1.6620   2.0487   2.0966   2.1419

          k = 0.2000 0.4619 0.0000 ( 48790 PWs)   bands (ev):

   -63.9226 -61.2748 -61.2673 -61.2599 -38.1303 -38.1295 -38.1279 -35.5727
   -35.5153 -35.4723 -35.4689 -35.4581 -35.4555 -35.4385 -35.4107 -35.3782
   -14.4161 -13.8542 -13.6408 -13.6105 -13.3305 -13.1153 -12.9065 -12.7194
    -5.6606  -5.6538  -5.5082  -5.4405  -5.3398  -4.7126  -4.4489  -4.3673
    -4.3602  -4.2831  -3.9681  -3.7504  -3.7405  -3.6092  -3.4400  -3.2589
    -2.8004  -2.5635  -2.3039  -2.2074  -2.0276  -1.8644  -1.7464  -1.4104
    -1.3302  -1.0635  -0.9804  -0.5856   1.0775   1.1013   1.1247   1.2786
     1.5914   1.6184   1.6185   1.8331   1.8958   2.2803

          k = 0.2000 0.5774 0.0000 ( 48766 PWs)   bands (ev):

   -63.9226 -61.2733 -61.2688 -61.2599 -38.1302 -38.1294 -38.1279 -35.5639
   -35.5047 -35.4872 -35.4691 -35.4587 -35.4432 -35.4385 -35.4257 -35.3797
   -14.1892 -14.1022 -13.6312 -13.5399 -13.4319 -13.1349 -12.8902 -12.7086
    -5.6766  -5.5011  -5.4198  -5.3451  -5.2050  -4.6031  -4.4371  -4.3659
    -4.2828  -4.2385  -4.0650  -3.9007  -3.8217  -3.7070  -3.6030  -3.2432
    -2.9355  -2.6929  -2.3503  -2.1537  -1.9987  -1.7576  -1.5856  -1.5437
    -1.3706  -1.1255  -0.9803  -0.5600   1.0389   1.0650   1.1165   1.1771
     1.6213   1.6582   1.6590   1.6933   1.8210   1.9054

          k = 0.3000 0.5196 0.0000 ( 48786 PWs)   bands (ev):

   -63.9226 -61.2725 -61.2696 -61.2599 -38.1300 -38.1296 -38.1279 -35.5523
   -35.5182 -35.4897 -35.4672 -35.4607 -35.4389 -35.4385 -35.4152 -35.3904
   -14.1835 -13.9270 -13.8581 -13.5215 -13.3986 -13.2101 -12.8529 -12.6880
    -5.7252  -5.3914  -5.3520  -5.2510  -5.1957  -4.6259  -4.3963  -4.3668
    -4.3405  -4.2613  -4.1305  -3.9052  -3.7389  -3.6875  -3.5659  -3.4395
    -3.1520  -2.4229  -2.3991  -2.2554  -2.1338  -1.6607  -1.5538  -1.4352
    -1.3633  -1.1250  -0.9845  -0.4923   0.9723   1.0211   1.0472   1.1273
     1.6047   1.6122   1.6357   1.6814   1.7590   1.8399

     the Fermi energy is    -0.6653 ev

!    total energy              =    -909.67280889 Ry
     Harris-Foulkes estimate   =    -909.67280889 Ry
     estimated scf accuracy    <          3.1E-10 Ry

     The total energy is the sum of the following terms:

     one-electron contribution =   -4153.64154541 Ry
     hartree contribution      =    2081.24226831 Ry
     xc contribution           =    -311.90850236 Ry
     ewald contribution        =    1474.63973589 Ry
     smearing contrib. (-TS)   =      -0.00476532 Ry

     convergence has been achieved in  10 iterations

     negative rho (up, down):  3.954E-04 0.000E+00

     Forces acting on atoms (Ry/au):

     atom    1 type  3   force =     0.00000000    0.00000000   -0.00000224
     atom    2 type  1   force =    -0.00305615   -0.00176447    0.00000786
     atom    3 type  1   force =    -0.00000000    0.00352893    0.00000786
     atom    4 type  1   force =     0.00305615   -0.00176447    0.00000786
     atom    5 type  2   force =    -0.00788472    0.00455225   -0.00407584
     atom    6 type  2   force =     0.00000000   -0.00910449   -0.00407584
     atom    7 type  2   force =     0.00788472    0.00455225   -0.00407584
     atom    8 type  2   force =     0.00000000    0.00000000    0.00495943
     atom    9 type  2   force =    -0.00788677    0.00455343    0.00407086
     atom   10 type  2   force =    -0.00000000   -0.00910686    0.00407086
     atom   11 type  2   force =     0.00788677    0.00455343    0.00407086
     atom   12 type  2   force =     0.00000000    0.00000000   -0.00496583

     Total force =     0.026147     Total SCF correction =     0.000100


     entering subroutine stress ...


     negative rho (up, down):  3.954E-04 0.000E+00
          total   stress  (Ry/bohr**3)                   (kbar)     P=   -1.79
  -0.00001328   0.00000000   0.00000000         -1.95      0.00      0.00
   0.00000000  -0.00001328   0.00000000          0.00     -1.95      0.00
  -0.00000000  -0.00000000  -0.00000995         -0.00     -0.00     -1.46


     number of scf cycles    =   3
     number of bfgs steps    =   2

     energy   old            =    -909.6709291780 Ry
     energy   new            =    -909.6728088943 Ry

     CASE: energy  _new < energy  _old

     new trust radius        =       0.0335177680 bohr
     new conv_thr            =       0.0000000009 Ry


ATOMIC_POSITIONS (angstrom)
V       -0.000000000   1.875085000   3.183911758
Mo      -1.629202153   4.684634057   3.183914436
Mo       3.247742000   1.881240886   3.183914436
Mo       1.629202153   4.684634057   3.183914436
Se       1.591366099   0.956308713   4.812138242
Se      -0.000000000   3.712635574   4.812138242
Se       4.904117901   0.956308713   4.812138242
Se       3.247742000   3.750169000   4.848328342
Se       1.591364316   0.956309743   1.555672394
Se       0.000000000   3.712633514   1.555672394
Se       4.904119684   0.956309743   1.555672394
Se       3.247742000   3.750169000   1.519480685



     Writing output data file mose2_v.save
     Check: negative starting charge=   -0.001217
     NEW-OLD atomic charge density approx. for the potential
     Check: negative starting charge=   -0.001214

     negative rho (up, down):  4.604E-04 0.000E+00

     total cpu time spent up to now is     2778.6 secs

     per-process dynamical memory:   127.3 Mb

     Self-consistent Calculation

     iteration #  1     ecut=    70.00 Ry     beta=0.70
     CG style diagonalization
     c_bands:  1 eigenvalues not converged
     c_bands:  2 eigenvalues not converged
     c_bands:  2 eigenvalues not converged
     c_bands:  2 eigenvalues not converged
     c_bands:  3 eigenvalues not converged
     c_bands:  3 eigenvalues not converged
     c_bands:  3 eigenvalues not converged
     c_bands:  4 eigenvalues not converged
     c_bands:  4 eigenvalues not converged
     c_bands:  4 eigenvalues not converged
     ethr =  1.00E-06,  avg # of iterations = 10.0

     negative rho (up, down):  4.019E-04 0.000E+00

     total cpu time spent up to now is     2975.1 secs

     total energy              =    -909.67261057 Ry
     Harris-Foulkes estimate   =    -909.67427923 Ry
     estimated scf accuracy    <       0.00196841 Ry

     iteration #  2     ecut=    70.00 Ry     beta=0.70
     CG style diagonalization
     c_bands:  1 eigenvalues not converged
     c_bands:  1 eigenvalues not converged
     c_bands:  1 eigenvalues not converged
     c_bands:  1 eigenvalues not converged
     c_bands:  1 eigenvalues not converged
     c_bands:  1 eigenvalues not converged
     c_bands:  1 eigenvalues not converged
     c_bands:  1 eigenvalues not converged
     c_bands:  1 eigenvalues not converged
     c_bands:  1 eigenvalues not converged
     c_bands:  1 eigenvalues not converged
     ethr =  1.91E-06,  avg # of iterations =  4.8

     negative rho (up, down):  4.039E-04 0.000E+00

     total cpu time spent up to now is     3059.3 secs

     total energy              =    -909.66537070 Ry
     Harris-Foulkes estimate   =    -909.68441653 Ry
     estimated scf accuracy    <       0.14294238 Ry

     iteration #  3     ecut=    70.00 Ry     beta=0.70
     CG style diagonalization
     c_bands:  1 eigenvalues not converged
     c_bands:  2 eigenvalues not converged
     c_bands:  1 eigenvalues not converged
     c_bands:  1 eigenvalues not converged
     c_bands:  1 eigenvalues not converged
     c_bands:  1 eigenvalues not converged
     ethr =  1.91E-06,  avg # of iterations =  4.7

     negative rho (up, down):  3.995E-04 0.000E+00

     total cpu time spent up to now is     3142.5 secs

     total energy              =    -909.67411336 Ry
     Harris-Foulkes estimate   =    -909.67414104 Ry
     estimated scf accuracy    <       0.00012195 Ry

     iteration #  4     ecut=    70.00 Ry     beta=0.70
     CG style diagonalization
     c_bands:  1 eigenvalues not converged
     ethr =  1.18E-07,  avg # of iterations =  3.9

     negative rho (up, down):  3.984E-04 0.000E+00

     total cpu time spent up to now is     3208.8 secs

     total energy              =    -909.67418473 Ry
     Harris-Foulkes estimate   =    -909.67419355 Ry
     estimated scf accuracy    <       0.00004737 Ry

     iteration #  5     ecut=    70.00 Ry     beta=0.70
     CG style diagonalization
     ethr =  4.60E-08,  avg # of iterations =  3.4

     negative rho (up, down):  3.980E-04 0.000E+00

     total cpu time spent up to now is     3265.7 secs

     total energy              =    -909.67418857 Ry
     Harris-Foulkes estimate   =    -909.67419183 Ry
     estimated scf accuracy    <       0.00002719 Ry

     iteration #  6     ecut=    70.00 Ry     beta=0.70
     CG style diagonalization
     ethr =  2.64E-08,  avg # of iterations =  3.1

     negative rho (up, down):  3.979E-04 0.000E+00

     total cpu time spent up to now is     3316.1 secs

     total energy              =    -909.67419003 Ry
     Harris-Foulkes estimate   =    -909.67419120 Ry
     estimated scf accuracy    <       0.00000570 Ry

     iteration #  7     ecut=    70.00 Ry     beta=0.70
     CG style diagonalization
     ethr =  5.54E-09,  avg # of iterations =  3.4

     negative rho (up, down):  3.978E-04 0.000E+00

     total cpu time spent up to now is     3373.0 secs

     total energy              =    -909.67419120 Ry
     Harris-Foulkes estimate   =    -909.67419124 Ry
     estimated scf accuracy    <       0.00000021 Ry

     iteration #  8     ecut=    70.00 Ry     beta=0.70
     CG style diagonalization
     ethr =  2.05E-10,  avg # of iterations =  6.1

     negative rho (up, down):  3.977E-04 0.000E+00

     total cpu time spent up to now is     3483.4 secs

     total energy              =    -909.67419175 Ry
     Harris-Foulkes estimate   =    -909.67419177 Ry
     estimated scf accuracy    <       0.00000007 Ry

     iteration #  9     ecut=    70.00 Ry     beta=0.70
     CG style diagonalization
     ethr =  7.21E-11,  avg # of iterations =  4.5

     negative rho (up, down):  3.977E-04 0.000E+00

     total cpu time spent up to now is     3562.2 secs

     total energy              =    -909.67419178 Ry
     Harris-Foulkes estimate   =    -909.67419180 Ry
     estimated scf accuracy    <       0.00000007 Ry

     iteration # 10     ecut=    70.00 Ry     beta=0.70
     CG style diagonalization
     ethr =  6.45E-11,  avg # of iterations =  3.4

     negative rho (up, down):  3.977E-04 0.000E+00

     total cpu time spent up to now is     3617.8 secs

     total energy              =    -909.67419179 Ry
     Harris-Foulkes estimate   =    -909.67419179 Ry
     estimated scf accuracy    <          1.0E-09 Ry

     iteration # 11     ecut=    70.00 Ry     beta=0.70
     CG style diagonalization
     ethr =  1.02E-12,  avg # of iterations =  8.3

     negative rho (up, down):  3.977E-04 0.000E+00

     total cpu time spent up to now is     3770.3 secs

     End of self-consistent calculation

          k = 0.0000 0.0000 0.0000 ( 48761 PWs)   bands (ev):

   -63.9102 -61.2819 -61.2597 -61.2597 -38.1289 -38.1221 -38.1221 -35.6404
   -35.5281 -35.5281 -35.4840 -35.4338 -35.4337 -35.3862 -35.3536 -35.3536
   -15.0686 -14.0046 -13.1933 -13.1008 -13.1007 -13.0407 -12.8192 -12.8192
    -6.4828  -6.4827  -6.3907  -6.1430  -5.6318  -5.4704  -5.4704  -4.4844
    -4.3819  -4.3819  -3.4410  -3.1833  -3.1833  -2.6443  -2.6043  -2.6043
    -2.4337  -2.3317  -2.3317  -1.4816  -1.4816  -1.4455  -1.4455  -1.2706
    -1.1223  -1.0468  -1.0468  -0.6664   1.2505   1.2506   1.3966   1.6103
     1.7645   1.7645   2.4161   2.4161   2.7160   2.7160

          k = 0.0000 0.1155 0.0000 ( 48801 PWs)   bands (ev):

   -63.9102 -61.2815 -61.2602 -61.2597 -38.1289 -38.1220 -38.1219 -35.6352
   -35.5276 -35.5246 -35.4829 -35.4349 -35.4337 -35.3887 -35.3600 -35.3549
   -15.0321 -13.9842 -13.2294 -13.1335 -13.1056 -13.0546 -12.8397 -12.8184
    -6.4201  -6.4132  -6.3119  -6.0992  -5.5847  -5.4659  -5.4057  -4.4716
    -4.3797  -4.3716  -3.4496  -3.2494  -3.1559  -2.7033  -2.6764  -2.5763
    -2.4981  -2.3284  -2.2658  -1.6805  -1.6618  -1.5367  -1.4621  -1.3332
    -1.1763  -0.9791  -0.9753  -0.6619   1.2627   1.2655   1.4096   1.5902
     1.7247   1.7701   2.2870   2.4607   2.5179   2.6552

          k = 0.0000 0.2309 0.0000 ( 48770 PWs)   bands (ev):

   -63.9102 -61.2801 -61.2616 -61.2597 -38.1289 -38.1218 -38.1213 -35.6208
   -35.5252 -35.5142 -35.4798 -35.4380 -35.4337 -35.3967 -35.3782 -35.3577
   -14.9246 -13.9242 -13.3900 -13.1627 -13.1184 -13.1077 -12.8824 -12.8161
    -6.2426  -6.2409  -6.0733  -5.9708  -5.4788  -5.4531  -5.1925  -4.4476
    -4.3712  -4.3399  -3.4790  -3.4231  -3.0791  -2.9782  -2.8485  -2.4977
    -2.4846  -2.3081  -2.1866  -2.1596  -2.1387  -1.6829  -1.4546  -1.4466
    -1.2726  -0.9437  -0.9209  -0.6692   1.2835   1.2951   1.4252   1.5128
     1.6699   1.7974   2.0136   2.0969   2.4892   2.5733

          k = 0.0000 0.3464 0.0000 ( 48772 PWs)   bands (ev):

   -63.9102 -61.2780 -61.2637 -61.2597 -38.1289 -38.1216 -38.1207 -35.6016
   -35.5185 -35.4981 -35.4752 -35.4427 -35.4337 -35.4110 -35.4060 -35.3602
   -14.7511 -13.8286 -13.6453 -13.2149 -13.1778 -13.1340 -12.9140 -12.8134
    -6.0112  -5.9872  -5.7901  -5.7122  -5.4347  -5.3492  -4.8460  -4.4699
    -4.3186  -4.2812  -3.6449  -3.5307  -3.3727  -3.1259  -2.9606  -2.7363
    -2.7029  -2.3944  -2.3371  -2.2728  -2.1133  -1.8663  -1.5332  -1.5141
    -1.4277  -0.9707  -0.8928  -0.7203   1.2684   1.3304   1.3918   1.4493
     1.6577   1.6849   1.8048   1.8434   2.2583   2.3052

          k = 0.0000 0.4619 0.0000 ( 48764 PWs)   bands (ev):

   -63.9102 -61.2758 -61.2659 -61.2597 -38.1289 -38.1214 -38.1201 -35.5855
   -35.5024 -35.4783 -35.4701 -35.4478 -35.4398 -35.4338 -35.4300 -35.3616
   -14.5215 -13.9401 -13.7068 -13.3563 -13.1875 -13.1464 -12.9282 -12.8112
    -5.7907  -5.7350  -5.5675  -5.4175  -5.3917  -5.2264  -4.4953  -4.4291
    -4.2217  -4.1786  -3.8403  -3.8053  -3.5841  -3.4675  -3.2626  -3.1892
    -2.8169  -2.2972  -2.2793  -2.1698  -2.0333  -1.9851  -1.6821  -1.6217
    -1.4947  -1.0650  -0.8761  -0.7927   1.2213   1.2869   1.3251   1.4213
     1.5601   1.6704   1.7723   1.8753   2.0147   2.0753

          k = 0.0000-0.5774 0.0000 ( 48748 PWs)   bands (ev):

   -63.9102 -61.2746 -61.2671 -61.2597 -38.1289 -38.1213 -38.1199 -35.5796
   -35.4770 -35.4717 -35.4674 -35.4624 -35.4506 -35.4456 -35.4338 -35.3621
   -14.2875 -14.1984 -13.6137 -13.4582 -13.1910 -13.1512 -12.9321 -12.8104
    -5.6933  -5.6222  -5.4388  -5.4103  -5.2873  -5.1713  -4.3978  -4.2142
    -4.1234  -4.0806  -4.0371  -3.9235  -3.7395  -3.6069  -3.5351  -3.4224
    -2.7277  -2.3645  -2.2187  -2.0495  -2.0012  -1.9383  -1.8395  -1.7518
    -1.4120  -1.1669  -0.8702  -0.8224   1.1888   1.2379   1.3162   1.3542
     1.6756   1.7129   1.7821   1.8213   1.9231   2.0513

          k = 0.1000 0.1732 0.0000 ( 48791 PWs)   bands (ev):

   -63.9102 -61.2805 -61.2611 -61.2597 -38.1289 -38.1218 -38.1215 -35.6253
   -35.5265 -35.5172 -35.4808 -35.4370 -35.4337 -35.3944 -35.3709 -35.3579
   -14.9601 -13.9440 -13.3054 -13.2261 -13.0859 -13.0751 -12.8819 -12.8084
    -6.3233  -6.2622  -6.1589  -6.0134  -5.5499  -5.3948  -5.2869  -4.4501
    -4.3747  -4.3547  -3.4726  -3.3412  -3.1391  -2.8884  -2.7818  -2.5239
    -2.4941  -2.3294  -2.1926  -2.1330  -1.8062  -1.6599  -1.5616  -1.4233
    -1.1498  -1.0033  -0.9059  -0.6589   1.2706   1.2847   1.4104   1.5546
     1.6538   1.8181   2.0841   2.2220   2.5289   2.5343

          k = 0.1000 0.2887 0.0000 ( 48778 PWs)   bands (ev):

   -63.9102 -61.2788 -61.2629 -61.2597 -38.1289 -38.1216 -38.1209 -35.6080
   -35.5235 -35.5031 -35.4769 -35.4409 -35.4337 -35.4094 -35.3886 -35.3621
   -14.8195 -13.8660 -13.4974 -13.3127 -13.1590 -13.0400 -12.9420 -12.7898
    -6.1314  -6.0188  -5.8859  -5.8415  -5.5489  -5.2435  -5.0204  -4.4365
    -4.3592  -4.3202  -3.5502  -3.4723  -3.2198  -3.1177  -2.9892  -2.7140
    -2.4461  -2.4338  -2.2845  -2.1807  -2.0905  -1.8748  -1.7275  -1.4030
    -1.2300  -0.9981  -0.8931  -0.6703   1.2566   1.2787   1.3583   1.5083
     1.6095   1.8273   1.8386   1.9214   2.3225   2.3857

          k = 0.1000 0.4041 0.0000 ( 48753 PWs)   bands (ev):

   -63.9102 -61.2766 -61.2651 -61.2597 -38.1289 -38.1214 -38.1204 -35.5887
   -35.5150 -35.4837 -35.4719 -35.4460 -35.4349 -35.4338 -35.4096 -35.3650
   -14.6177 -13.7728 -13.7562 -13.3611 -13.2802 -13.0166 -12.9832 -12.7729
    -5.8799  -5.7636  -5.6491  -5.5497  -5.5230  -5.0880  -4.6304  -4.4773
    -4.3004  -4.2551  -3.7276  -3.6351  -3.5565  -3.2919  -3.2905  -3.0269
    -2.6870  -2.4689  -2.2512  -2.1815  -2.0770  -1.9457  -1.7820  -1.4772
    -1.3506  -1.0207  -0.9263  -0.6929   1.2008   1.2481   1.2758   1.4735
     1.5436   1.6237   1.7185   2.0011   2.0930   2.1227

          k = 0.1000 0.5196 0.0000 ( 48763 PWs)   bands (ev):

   -63.9102 -61.2746 -61.2671 -61.2597 -38.1289 -38.1212 -38.1200 -35.5765
   -35.4962 -35.4674 -35.4672 -35.4605 -35.4506 -35.4338 -35.4317 -35.3662
   -14.3685 -14.0674 -13.6330 -13.4165 -13.3859 -13.0053 -13.0012 -12.7631
    -5.6765  -5.5860  -5.5491  -5.4530  -5.2942  -4.9706  -4.4482  -4.2412
    -4.2175  -4.1485  -4.0244  -3.8781  -3.7375  -3.6407  -3.5867  -3.0198
    -2.9212  -2.5809  -2.2427  -2.1103  -1.9555  -1.8292  -1.8167  -1.6424
    -1.3936  -1.1252  -0.9489  -0.7009   1.1526   1.2057   1.2201   1.3265
     1.6313   1.6402   1.7613   1.8273   1.9740   2.0901

          k = 0.2000 0.3464 0.0000 ( 48776 PWs)   bands (ev):

   -63.9102 -61.2769 -61.2648 -61.2597 -38.1289 -38.1213 -38.1205 -35.5891
   -35.5212 -35.4846 -35.4725 -35.4454 -35.4347 -35.4338 -35.3968 -35.3703
   -14.6504 -13.7733 -13.6152 -13.5281 -13.2337 -13.0325 -12.9637 -12.7488
    -5.9181  -5.7230  -5.6789  -5.6186  -5.6151  -4.9443  -4.7666  -4.4211
    -4.3745  -4.2999  -3.6386  -3.5693  -3.5087  -3.2976  -3.2630  -3.1606
    -2.5654  -2.3843  -2.2263  -2.1753  -2.0733  -2.0271  -1.9164  -1.3575
    -1.2474  -1.0296  -0.9381  -0.6355   1.1649   1.1938   1.2187   1.5049
     1.5621   1.6149   1.6754   2.0514   2.1344   2.1438

          k = 0.2000 0.4619 0.0000 ( 48790 PWs)   bands (ev):

   -63.9102 -61.2746 -61.2671 -61.2597 -38.1289 -38.1210 -38.1202 -35.5701
   -35.5143 -35.4674 -35.4668 -35.4598 -35.4506 -35.4338 -35.4112 -35.3762
   -14.4268 -13.8666 -13.6550 -13.6165 -13.3434 -13.0957 -12.9156 -12.7187
    -5.6653  -5.6491  -5.5009  -5.4599  -5.3520  -4.7042  -4.4599  -4.3825
    -4.3699  -4.2888  -3.9704  -3.7534  -3.7524  -3.5870  -3.4504  -3.2453
    -2.8160  -2.5639  -2.3213  -2.2077  -2.0390  -1.8604  -1.7372  -1.4064
    -1.3218  -1.0790  -0.9940  -0.5837   1.0692   1.1016   1.1316   1.2999
     1.5965   1.6193   1.6380   1.8361   1.9268   2.2825

          k = 0.2000 0.5774 0.0000 ( 48766 PWs)   bands (ev):

   -63.9102 -61.2732 -61.2685 -61.2597 -38.1289 -38.1209 -38.1201 -35.5618
   -35.5017 -35.4875 -35.4642 -35.4537 -35.4440 -35.4338 -35.4261 -35.3778
   -14.1995 -14.1143 -13.6380 -13.5615 -13.4373 -13.1154 -12.8993 -12.7078
    -5.6818  -5.4934  -5.4166  -5.3541  -5.2265  -4.5966  -4.4579  -4.3722
    -4.2781  -4.2364  -4.0820  -3.9158  -3.8378  -3.7104  -3.5770  -3.2145
    -2.9720  -2.6918  -2.3611  -2.1554  -2.0074  -1.7559  -1.5845  -1.5286
    -1.3597  -1.1434  -0.9950  -0.5587   1.0319   1.0632   1.1105   1.2117
     1.6237   1.6708   1.6880   1.7069   1.8130   1.9025

          k = 0.3000 0.5196 0.0000 ( 48786 PWs)   bands (ev):

   -63.9102 -61.2723 -61.2694 -61.2597 -38.1289 -38.1207 -38.1203 -35.5506
   -35.5149 -35.4901 -35.4623 -35.4556 -35.4396 -35.4338 -35.4162 -35.3877
   -14.1935 -13.9518 -13.8524 -13.5394 -13.4192 -13.1792 -12.8621 -12.6871
    -5.7303  -5.3800  -5.3377  -5.2756  -5.2133  -4.6409  -4.4055  -4.3736
    -4.3352  -4.2570  -4.1439  -3.9185  -3.7554  -3.6792  -3.5352  -3.4283
    -3.1920  -2.4113  -2.4072  -2.2621  -2.1454  -1.6672  -1.5414  -1.4228
    -1.3517  -1.1448  -0.9994  -0.4899   0.9655   1.0124   1.0469   1.1612
     1.6152   1.6377   1.6404   1.6863   1.7664   1.8289

     the Fermi energy is    -0.6609 ev

!    total energy              =    -909.67419180 Ry
     Harris-Foulkes estimate   =    -909.67419180 Ry
     estimated scf accuracy    <          5.7E-10 Ry

     The total energy is the sum of the following terms:

     one-electron contribution =   -4156.58093685 Ry
     hartree contribution      =    2082.71368439 Ry
     xc contribution           =    -311.92192237 Ry
     ewald contribution        =    1476.11968715 Ry
     smearing contrib. (-TS)   =      -0.00470412 Ry

     convergence has been achieved in  11 iterations

     negative rho (up, down):  3.977E-04 0.000E+00

     Forces acting on atoms (Ry/au):

     atom    1 type  3   force =     0.00000000    0.00000000   -0.00000651
     atom    2 type  1   force =    -0.00353526   -0.00204108   -0.00000648
     atom    3 type  1   force =    -0.00000000    0.00408217   -0.00000648
     atom    4 type  1   force =     0.00353526   -0.00204108   -0.00000648
     atom    5 type  2   force =    -0.00084958    0.00049050   -0.00165789
     atom    6 type  2   force =    -0.00000000   -0.00098101   -0.00165789
     atom    7 type  2   force =     0.00084958    0.00049050   -0.00165789
     atom    8 type  2   force =     0.00000000    0.00000000    0.00181517
     atom    9 type  2   force =    -0.00084811    0.00048966    0.00166356
     atom   10 type  2   force =    -0.00000000   -0.00097931    0.00166356
     atom   11 type  2   force =     0.00084811    0.00048966    0.00166356
     atom   12 type  2   force =     0.00000000    0.00000000   -0.00180624

     Total force =     0.008880     Total SCF correction =     0.000069


     entering subroutine stress ...


     negative rho (up, down):  3.977E-04 0.000E+00
          total   stress  (Ry/bohr**3)                   (kbar)     P=   -1.44
  -0.00001228  -0.00000000   0.00000000         -1.81     -0.00      0.00
  -0.00000000  -0.00001228  -0.00000000         -0.00     -1.81     -0.00
   0.00000000  -0.00000000  -0.00000476          0.00     -0.00     -0.70


     number of scf cycles    =   4
     number of bfgs steps    =   3

     energy   old            =    -909.6728088943 Ry
     energy   new            =    -909.6741918010 Ry

     CASE: energy  _new < energy  _old

     new trust radius        =       0.0093026493 bohr
     new conv_thr            =       0.0000000004 Ry


ATOMIC_POSITIONS (angstrom)
V       -0.000000000   1.875085000   3.183907413
Mo      -1.632267785   4.682864114   3.183911337
Mo       3.247742000   1.884780772   3.183911337
Mo       1.632267785   4.682864114   3.183911337
Se       1.587722737   0.958412210   4.809583619
Se      -0.000000000   3.708428581   4.809583619
Se       4.907761263   0.958412210   4.809583619
Se       3.247742000   3.750169000   4.851554147
Se       1.587721609   0.958412861   1.558229941
Se      -0.000000000   3.708427278   1.558229941
Se       4.907762391   0.958412861   1.558229941
Se       3.247742000   3.750169000   1.516259749



     Writing output data file mose2_v.save
     Check: negative starting charge=   -0.001214
     NEW-OLD atomic charge density approx. for the potential
     Check: negative starting charge=   -0.001211

     negative rho (up, down):  4.047E-04 0.000E+00

     total cpu time spent up to now is     3806.8 secs

     per-process dynamical memory:   127.3 Mb

     Self-consistent Calculation

     iteration #  1     ecut=    70.00 Ry     beta=0.70
     CG style diagonalization
     ethr =  1.00E-06,  avg # of iterations =  4.8

     Threshold (ethr) on eigenvalues was too large:
     Diagonalizing with lowered threshold

     CG style diagonalization
     c_bands:  1 eigenvalues not converged
     c_bands:  1 eigenvalues not converged
     c_bands:  1 eigenvalues not converged
     c_bands:  1 eigenvalues not converged
     c_bands:  3 eigenvalues not converged
     c_bands:  2 eigenvalues not converged
     c_bands:  2 eigenvalues not converged
     c_bands:  4 eigenvalues not converged
     c_bands:  5 eigenvalues not converged
     c_bands:  4 eigenvalues not converged
     c_bands:  5 eigenvalues not converged
     ethr =  9.96E-08,  avg # of iterations =  5.6

     negative rho (up, down):  3.944E-04 0.000E+00

     total cpu time spent up to now is     4020.8 secs

     total energy              =    -909.67417673 Ry
     Harris-Foulkes estimate   =    -909.67432729 Ry
     estimated scf accuracy    <       0.00018007 Ry

     iteration #  2     ecut=    70.00 Ry     beta=0.70
     CG style diagonalization
     ethr =  1.75E-07,  avg # of iterations =  4.2

     negative rho (up, down):  3.975E-04 0.000E+00

     total cpu time spent up to now is     4093.9 secs

     total energy              =    -909.67351421 Ry
     Harris-Foulkes estimate   =    -909.67519245 Ry
     estimated scf accuracy    <       0.01289377 Ry

     iteration #  3     ecut=    70.00 Ry     beta=0.70
     CG style diagonalization
     ethr =  1.75E-07,  avg # of iterations =  4.0

     negative rho (up, down):  3.967E-04 0.000E+00

     total cpu time spent up to now is     4162.2 secs

     total energy              =    -909.67430801 Ry
     Harris-Foulkes estimate   =    -909.67431644 Ry
     estimated scf accuracy    <       0.00001530 Ry

     iteration #  4     ecut=    70.00 Ry     beta=0.70
     CG style diagonalization
     ethr =  1.49E-08,  avg # of iterations =  3.8

[...]


     number of scf cycles    =   8
     number of bfgs steps    =   7

     energy   old            =    -909.6744427031 Ry
     energy   new            =    -909.6745051463 Ry

     CASE: energy  _new < energy  _old

     new trust radius        =       0.0039659711 bohr
     new conv_thr            =            1.0E-10 Ry


ATOMIC_POSITIONS (angstrom)
V       -0.000000000   1.875085000   3.183909963
Mo      -1.643783097   4.676215745   3.183906325
Mo       3.247742000   1.898077509   3.183906325
Mo       1.643783097   4.676215745   3.183906325
Se       1.590072743   0.957055432   4.804574269
Se      -0.000000000   3.711142135   4.804574269
Se       4.905411257   0.957055432   4.804574269
Se       3.247742000   3.750169000   4.863966422
Se       1.590073323   0.957055098   1.563242767
Se       0.000000000   3.711142804   1.563242767
Se       4.905410677   0.957055098   1.563242767
Se       3.247742000   3.750169000   1.503849533



     Writing output data file mose2_v.save
     Check: negative starting charge=   -0.001198
     NEW-OLD atomic charge density approx. for the potential
     Check: negative starting charge=   -0.001197

     negative rho (up, down):  3.926E-04 0.000E+00

     total cpu time spent up to now is     7809.5 secs

     per-process dynamical memory:   127.3 Mb

     Self-consistent Calculation

     iteration #  1     ecut=    70.00 Ry     beta=0.70
     CG style diagonalization
     ethr =  1.00E-06,  avg # of iterations =  2.9

     Threshold (ethr) on eigenvalues was too large:
     Diagonalizing with lowered threshold

     CG style diagonalization
     c_bands:  1 eigenvalues not converged
     ethr =  2.06E-09,  avg # of iterations = 13.0

     negative rho (up, down):  3.920E-04 0.000E+00

     total cpu time spent up to now is     8113.6 secs

     total energy              =    -909.67451492 Ry
     Harris-Foulkes estimate   =    -909.67451806 Ry
     estimated scf accuracy    <       0.00000459 Ry

     iteration #  2     ecut=    70.00 Ry     beta=0.70
     CG style diagonalization
     ethr =  4.46E-09,  avg # of iterations =  4.0

     negative rho (up, down):  3.914E-04 0.000E+00

     total cpu time spent up to now is     8181.2 secs

     total energy              =    -909.67450369 Ry
     Harris-Foulkes estimate   =    -909.67452941 Ry
     estimated scf accuracy    <       0.00018112 Ry

     iteration #  3     ecut=    70.00 Ry     beta=0.70
     CG style diagonalization
     ethr =  4.46E-09,  avg # of iterations =  3.8

     negative rho (up, down):  3.915E-04 0.000E+00

     total cpu time spent up to now is     8245.8 secs

     total energy              =    -909.67451663 Ry
     Harris-Foulkes estimate   =    -909.67451752 Ry
     estimated scf accuracy    <       0.00000335 Ry

     iteration #  4     ecut=    70.00 Ry     beta=0.70
     CG style diagonalization
     ethr =  3.25E-09,  avg # of iterations =  3.4

     negative rho (up, down):  3.915E-04 0.000E+00

     total cpu time spent up to now is     8303.0 secs

     total energy              =    -909.67451687 Ry
     Harris-Foulkes estimate   =    -909.67451735 Ry
     estimated scf accuracy    <       0.00000142 Ry

     iteration #  5     ecut=    70.00 Ry     beta=0.70
     CG style diagonalization
     ethr =  1.38E-09,  avg # of iterations =  3.4

     negative rho (up, down):  3.915E-04 0.000E+00

     total cpu time spent up to now is     8359.6 secs

     total energy              =    -909.67451711 Ry
     Harris-Foulkes estimate   =    -909.67451724 Ry
     estimated scf accuracy    <       0.00000043 Ry

     iteration #  6     ecut=    70.00 Ry     beta=0.70
     CG style diagonalization
     ethr =  4.18E-10,  avg # of iterations =  3.3

     negative rho (up, down):  3.915E-04 0.000E+00

     total cpu time spent up to now is     8414.5 secs

     total energy              =    -909.67451718 Ry
     Harris-Foulkes estimate   =    -909.67451718 Ry
     estimated scf accuracy    <          7.3E-09 Ry

     iteration #  7     ecut=    70.00 Ry     beta=0.70
     CG style diagonalization
     ethr =  7.09E-12,  avg # of iterations =  5.2

     negative rho (up, down):  3.915E-04 0.000E+00

     total cpu time spent up to now is     8506.8 secs

     total energy              =    -909.67451719 Ry
     Harris-Foulkes estimate   =    -909.67451719 Ry
     estimated scf accuracy    <       0.00000004 Ry

     iteration #  8     ecut=    70.00 Ry     beta=0.70
     CG style diagonalization
     ethr =  7.09E-12,  avg # of iterations =  3.8

     negative rho (up, down):  3.915E-04 0.000E+00

     total cpu time spent up to now is     8570.6 secs

     total energy              =    -909.67451719 Ry
     Harris-Foulkes estimate   =    -909.67451719 Ry
     estimated scf accuracy    <          1.6E-09 Ry

     iteration #  9     ecut=    70.00 Ry     beta=0.70
     CG style diagonalization
     ethr =  1.52E-12,  avg # of iterations =  3.9

     negative rho (up, down):  3.915E-04 0.000E+00

     total cpu time spent up to now is     8636.2 secs

     total energy              =    -909.67451719 Ry
     Harris-Foulkes estimate   =    -909.67451719 Ry
     estimated scf accuracy    <          1.1E-10 Ry

     iteration # 10     ecut=    70.00 Ry     beta=0.70
     CG style diagonalization
     ethr =  1.11E-13,  avg # of iterations =  6.4

     negative rho (up, down):  3.915E-04 0.000E+00

     total cpu time spent up to now is     8752.1 secs

     End of self-consistent calculation

          k = 0.0000 0.0000 0.0000 ( 48761 PWs)   bands (ev):

   -63.9075 -61.2821 -61.2596 -61.2595 -38.1299 -38.1208 -38.1208 -35.6504
   -35.5255 -35.5254 -35.4818 -35.4311 -35.4310 -35.3803 -35.3580 -35.3580
   -15.0760 -14.0083 -13.1928 -13.1135 -13.1134 -13.0621 -12.8112 -12.8112
    -6.4861  -6.4861  -6.4023  -6.1447  -5.6277  -5.4758  -5.4758  -4.4812
    -4.3910  -4.3910  -3.4370  -3.1946  -3.1946  -2.7244  -2.6060  -2.6060
    -2.4034  -2.2909  -2.2909  -1.4957  -1.4957  -1.4687  -1.4686  -1.3028
    -1.1688  -1.0141  -1.0141  -0.6550   1.2397   1.2397   1.4338   1.6141
     1.7499   1.7499   2.4238   2.4238   2.7146   2.7146

          k = 0.0000 0.1155 0.0000 ( 48801 PWs)   bands (ev):

   -63.9075 -61.2816 -61.2600 -61.2595 -38.1298 -38.1207 -38.1206 -35.6453
   -35.5249 -35.5218 -35.4807 -35.4322 -35.4310 -35.3828 -35.3642 -35.3592
   -15.0395 -13.9879 -13.2314 -13.1437 -13.1183 -13.0753 -12.8322 -12.8103
    -6.4239  -6.4179  -6.3227  -6.1003  -5.5806  -5.4716  -5.4110  -4.4717
    -4.3861  -4.3798  -3.4436  -3.2640  -3.1694  -2.7344  -2.7059  -2.5783
    -2.4816  -2.2872  -2.2323  -1.7026  -1.6744  -1.5512  -1.4731  -1.3503
    -1.1997  -0.9794  -0.9592  -0.6500   1.2519   1.2524   1.4502   1.5947
     1.7088   1.7554   2.2939   2.4689   2.5177   2.6547

          k = 0.0000 0.2309 0.0000 ( 48770 PWs)   bands (ev):

   -63.9075 -61.2802 -61.2614 -61.2595 -38.1298 -38.1205 -38.1200 -35.6312
   -35.5228 -35.5113 -35.4776 -35.4353 -35.4310 -35.3915 -35.3821 -35.3617
   -14.9320 -13.9282 -13.3965 -13.1683 -13.1310 -13.1251 -12.8780 -12.8080
    -6.2479  -6.2466  -6.0864  -5.9680  -5.4757  -5.4596  -5.1965  -4.4559
    -4.3714  -4.3458  -3.4703  -3.4419  -3.0952  -2.9831  -2.8582  -2.5106
    -2.4991  -2.2661  -2.1795  -2.1593  -2.1425  -1.6987  -1.4610  -1.4516
    -1.2908  -0.9473  -0.9290  -0.6556   1.2640   1.2848   1.4708   1.5156
     1.6544   1.7846   2.0195   2.0990   2.4911   2.5840

          k = 0.0000 0.3464 0.0000 ( 48772 PWs)   bands (ev):

   -63.9075 -61.2782 -61.2634 -61.2595 -38.1298 -38.1203 -38.1194 -35.6119
   -35.5168 -35.4947 -35.4730 -35.4399 -35.4310 -35.4092 -35.4069 -35.3635
   -14.7586 -13.8330 -13.6527 -13.2265 -13.1822 -13.1464 -12.9149 -12.8052
    -6.0149  -5.9952  -5.8054  -5.7083  -5.4423  -5.3472  -4.8476  -4.4780
    -4.3225  -4.2830  -3.6654  -3.5213  -3.3795  -3.1269  -2.9758  -2.7299
    -2.7214  -2.4284  -2.3449  -2.2323  -2.0902  -1.8826  -1.5314  -1.5130
    -1.4482  -0.9590  -0.9288  -0.7025   1.2378   1.3302   1.3929   1.4865
     1.6383   1.6971   1.8107   1.8349   2.2642   2.3173

          k = 0.0000 0.4619 0.0000 ( 48764 PWs)   bands (ev):

   -63.9075 -61.2761 -61.2656 -61.2595 -38.1298 -38.1201 -38.1188 -35.5951
   -35.5032 -35.4739 -35.4680 -35.4450 -35.4411 -35.4311 -35.4274 -35.3644
   -14.5291 -13.9474 -13.7122 -13.3636 -13.1916 -13.1587 -12.9325 -12.8029
    -5.7902  -5.7470  -5.5785  -5.4261  -5.3951  -5.2248  -4.5020  -4.4258
    -4.2310  -4.1748  -3.8619  -3.8130  -3.5750  -3.4729  -3.2564  -3.2064
    -2.8284  -2.3115  -2.2746  -2.1739  -2.0170  -1.9869  -1.6736  -1.6482
    -1.4846  -1.0639  -0.9160  -0.7653   1.1821   1.2772   1.3472   1.4393
     1.5733   1.6589   1.7811   1.8653   2.0312   2.0823

          k = 0.0000-0.5774 0.0000 ( 48748 PWs)   bands (ev):

   -63.9075 -61.2749 -61.2668 -61.2595 -38.1298 -38.1200 -38.1186 -35.5886
   -35.4865 -35.4654 -35.4650 -35.4521 -35.4490 -35.4476 -35.4311 -35.3646
   -14.2965 -14.2044 -13.6208 -13.4628 -13.1951 -13.1634 -12.9374 -12.8020
    -5.6903  -5.6364  -5.4505  -5.4193  -5.2916  -5.1698  -4.4135  -4.2031
    -4.1018  -4.0721  -4.0594  -3.9543  -3.7549  -3.5979  -3.5306  -3.4382
    -2.7363  -2.3558  -2.2472  -2.0444  -1.9918  -1.9427  -1.8125  -1.7887
    -1.3897  -1.1801  -0.9112  -0.7899   1.1501   1.2196   1.3445   1.3789
     1.6635   1.7116   1.7805   1.8384   1.9420   2.0548

          k = 0.1000 0.1732 0.0000 ( 48791 PWs)   bands (ev):

   -63.9075 -61.2807 -61.2609 -61.2595 -38.1298 -38.1206 -38.1202 -35.6356
   -35.5240 -35.5144 -35.4786 -35.4342 -35.4311 -35.3895 -35.3740 -35.3623
   -14.9675 -13.9479 -13.3095 -13.2365 -13.1050 -13.0853 -12.8750 -12.8012
    -6.3285  -6.2673  -6.1704  -6.0125  -5.5500  -5.3965  -5.2924  -4.4560
    -4.3764  -4.3616  -3.4664  -3.3558  -3.1575  -2.8926  -2.7984  -2.5264
    -2.5131  -2.2875  -2.1636  -2.1447  -1.8239  -1.6752  -1.5643  -1.4302
    -1.1775  -1.0014  -0.9060  -0.6469   1.2569   1.2706   1.4516   1.5583
     1.6430   1.8024   2.0900   2.2236   2.5351   2.5398

          k = 0.1000 0.2887 0.0000 ( 48778 PWs)   bands (ev):

   -63.9075 -61.2790 -61.2627 -61.2595 -38.1298 -38.1203 -38.1196 -35.6185
   -35.5212 -35.5000 -35.4748 -35.4382 -35.4311 -35.4077 -35.3885 -35.3662
   -14.8270 -13.8703 -13.5044 -13.3207 -13.1742 -13.0493 -12.9374 -12.7838
    -6.1370  -6.0248  -5.9063  -5.8319  -5.5526  -5.2443  -5.0236  -4.4470
    -4.3578  -4.3253  -3.5619  -3.4690  -3.2259  -3.1405  -2.9862  -2.7217
    -2.4661  -2.4363  -2.2559  -2.1928  -2.0656  -1.8906  -1.7310  -1.4054
    -1.2476  -1.0055  -0.9001  -0.6586   1.2285   1.2753   1.3845   1.5129
     1.6114   1.8277   1.8436   1.9126   2.3260   2.4008

          k = 0.1000 0.4041 0.0000 ( 48753 PWs)   bands (ev):

   -63.9075 -61.2768 -61.2649 -61.2595 -38.1298 -38.1201 -38.1191 -35.5991
   -35.5139 -35.4802 -35.4698 -35.4432 -35.4351 -35.4311 -35.4079 -35.3683
   -14.6252 -13.7802 -13.7611 -13.3687 -13.2901 -13.0255 -12.9822 -12.7677
    -5.8846  -5.7707  -5.6611  -5.5551  -5.5239  -5.0891  -4.6302  -4.4837
    -4.3029  -4.2594  -3.7475  -3.6423  -3.5464  -3.2974  -3.2965  -3.0392
    -2.6924  -2.4680  -2.2561  -2.1865  -2.0774  -1.9288  -1.7907  -1.4755
    -1.3593  -1.0200  -0.9490  -0.6811   1.1599   1.2612   1.2834   1.4871
     1.5469   1.6267   1.7241   1.9895   2.1040   2.1344

          k = 0.1000 0.5196 0.0000 ( 48763 PWs)   bands (ev):

   -63.9075 -61.2749 -61.2668 -61.2595 -38.1298 -38.1199 -38.1187 -35.5860
   -35.4987 -35.4654 -35.4652 -35.4561 -35.4476 -35.4311 -35.4309 -35.3690
   -14.3764 -14.0746 -13.6394 -13.4226 -13.3933 -13.0141 -13.0022 -12.7583
    -5.6773  -5.5968  -5.5554  -5.4641  -5.2985  -4.9716  -4.4574  -4.2426
    -4.2081  -4.1446  -4.0352  -3.9003  -3.7452  -3.6467  -3.5830  -3.0249
    -2.9298  -2.5858  -2.2440  -2.1071  -1.9580  -1.8416  -1.8178  -1.6334
    -1.3852  -1.1334  -0.9697  -0.6903   1.1046   1.1953   1.2496   1.3494
     1.6111   1.6595   1.7725   1.8324   1.9794   2.0921

          k = 0.2000 0.3464 0.0000 ( 48776 PWs)   bands (ev):

   -63.9075 -61.2771 -61.2646 -61.2595 -38.1298 -38.1200 -38.1192 -35.5999
   -35.5192 -35.4815 -35.4704 -35.4426 -35.4346 -35.4311 -35.3940 -35.3751
   -14.6579 -13.7781 -13.6228 -13.5355 -13.2468 -13.0275 -12.9727 -12.7447
    -5.9237  -5.7268  -5.6983  -5.6235  -5.6106  -4.9453  -4.7678  -4.4313
    -4.3694  -4.3085  -3.6542  -3.5764  -3.4952  -3.3047  -3.2928  -3.1558
    -2.5595  -2.3904  -2.2255  -2.1848  -2.0759  -2.0382  -1.8959  -1.3572
    -1.2582  -1.0402  -0.9461  -0.6273   1.1232   1.2051   1.2349   1.5073
     1.5667   1.6247   1.6798   2.0460   2.1457   2.1477

          k = 0.2000 0.4619 0.0000 ( 48790 PWs)   bands (ev):

   -63.9075 -61.2749 -61.2668 -61.2595 -38.1298 -38.1197 -38.1189 -35.5811
   -35.5137 -35.4654 -35.4652 -35.4567 -35.4476 -35.4311 -35.4087 -35.3804
   -14.4345 -13.8743 -13.6609 -13.6236 -13.3527 -13.0924 -12.9245 -12.7154
    -5.6711  -5.6546  -5.5077  -5.4706  -5.3556  -4.7056  -4.4653  -4.3795
    -4.3674  -4.2988  -3.9745  -3.7698  -3.7639  -3.5720  -3.4673  -3.2525
    -2.8215  -2.5687  -2.3176  -2.1956  -2.0617  -1.8661  -1.7218  -1.4029
    -1.3249  -1.0856  -1.0122  -0.5766   1.0213   1.1137   1.1465   1.3162
     1.5804   1.6399   1.6431   1.8400   1.9373   2.2783

          k = 0.2000 0.5774 0.0000 ( 48766 PWs)   bands (ev):

   -63.9075 -61.2737 -61.2680 -61.2595 -38.1298 -38.1196 -38.1188 -35.5726
   -35.5059 -35.4821 -35.4625 -35.4506 -35.4381 -35.4311 -35.4263 -35.3816
   -14.2081 -14.1210 -13.6450 -13.5694 -13.4433 -13.1132 -12.9081 -12.7048
    -5.6879  -5.4976  -5.4257  -5.3643  -5.2303  -4.5974  -4.4621  -4.3862
    -4.2792  -4.2287  -4.0706  -3.9319  -3.8528  -3.7218  -3.5756  -3.2174
    -2.9889  -2.6949  -2.3520  -2.1416  -2.0331  -1.7565  -1.5886  -1.5116
    -1.3574  -1.1562  -1.0117  -0.5516   0.9824   1.0689   1.1305   1.2311
     1.6074   1.6861   1.6966   1.7192   1.8109   1.8979

          k = 0.3000 0.5196 0.0000 ( 48786 PWs)   bands (ev):

   -63.9075 -61.2731 -61.2686 -61.2595 -38.1298 -38.1194 -38.1190 -35.5637
   -35.5158 -35.4854 -35.4609 -35.4522 -35.4349 -35.4311 -35.4127 -35.3943
   -14.2014 -13.9616 -13.8572 -13.5475 -13.4272 -13.1743 -12.8709 -12.6845
    -5.7363  -5.3966  -5.3402  -5.2801  -5.2157  -4.6463  -4.4239  -4.3710
    -4.3324  -4.2489  -4.1449  -3.9356  -3.7645  -3.6725  -3.5460  -3.4240
    -3.2202  -2.4127  -2.3959  -2.2542  -2.1610  -1.6677  -1.5411  -1.4110
    -1.3562  -1.1573  -1.0148  -0.4835   0.9238   1.0118   1.0684   1.1792
     1.6010   1.6488   1.6501   1.6962   1.7661   1.8264

     the Fermi energy is    -0.6498 ev

!    total energy              =    -909.67451719 Ry
     Harris-Foulkes estimate   =    -909.67451719 Ry
     estimated scf accuracy    <          2.8E-11 Ry

     The total energy is the sum of the following terms:

     one-electron contribution =   -4158.39494342 Ry
     hartree contribution      =    2083.61568157 Ry
     xc contribution           =    -311.93162913 Ry
     ewald contribution        =    1477.04108451 Ry
     smearing contrib. (-TS)   =      -0.00471071 Ry

     convergence has been achieved in  10 iterations

     negative rho (up, down):  3.915E-04 0.000E+00

     Forces acting on atoms (Ry/au):

     atom    1 type  3   force =     0.00000000    0.00000000   -0.00000033
     atom    2 type  1   force =     0.00047380    0.00027355    0.00000236
     atom    3 type  1   force =     0.00000000   -0.00054709    0.00000236
     atom    4 type  1   force =    -0.00047380    0.00027355    0.00000236
     atom    5 type  2   force =     0.00013802   -0.00007969    0.00020763
     atom    6 type  2   force =     0.00000000    0.00015937    0.00020763
     atom    7 type  2   force =    -0.00013802   -0.00007969    0.00020763
     atom    8 type  2   force =     0.00000000    0.00000000    0.00088954
     atom    9 type  2   force =     0.00013649   -0.00007880   -0.00020916
     atom   10 type  2   force =     0.00000000    0.00015760   -0.00020916
     atom   11 type  2   force =    -0.00013649   -0.00007880   -0.00020916
     atom   12 type  2   force =     0.00000000    0.00000000   -0.00089172

     Total force =     0.001702     Total SCF correction =     0.000023


     entering subroutine stress ...


     negative rho (up, down):  3.915E-04 0.000E+00
          total   stress  (Ry/bohr**3)                   (kbar)     P=   -1.11
  -0.00001186   0.00000000   0.00000000         -1.74      0.00      0.00
   0.00000000  -0.00001186   0.00000000          0.00     -1.74      0.00
   0.00000000   0.00000000   0.00000103          0.00      0.00      0.15


     bfgs converged in   9 scf cycles and   8 bfgs steps
     (criteria: energy <  1.0E-04, force <  1.0E-03)

     End of BFGS Geometry Optimization

     Final energy   =    -909.6745171906 Ry
Begin final coordinates

ATOMIC_POSITIONS (angstrom)
V       -0.000000000   1.875085000   3.183909963
Mo      -1.643783097   4.676215745   3.183906325
Mo       3.247742000   1.898077509   3.183906325
Mo       1.643783097   4.676215745   3.183906325
Se       1.590072743   0.957055432   4.804574269
Se      -0.000000000   3.711142135   4.804574269
Se       4.905411257   0.957055432   4.804574269
Se       3.247742000   3.750169000   4.863966422
Se       1.590073323   0.957055098   1.563242767
Se       0.000000000   3.711142804   1.563242767
Se       4.905410677   0.957055098   1.563242767
Se       3.247742000   3.750169000   1.503849533
End final coordinates



     Writing output data file mose2_v.save
 
     init_run     :      8.29s CPU      8.51s WALL (       1 calls)
     electrons    :   8405.15s CPU   8455.93s WALL (       9 calls)
     update_pot   :     16.43s CPU     18.97s WALL (       8 calls)
     forces       :     45.03s CPU     46.29s WALL (       9 calls)
     stress       :    234.81s CPU    238.89s WALL (       9 calls)

     Called by init_run:
     wfcinit      :      3.91s CPU      3.93s WALL (       1 calls)
     potinit      :      0.62s CPU      0.63s WALL (       1 calls)

     Called by electrons:
     c_bands      :   7753.19s CPU   7770.18s WALL (     105 calls)
     sum_band     :    488.13s CPU    505.35s WALL (     105 calls)
     v_of_rho     :      3.26s CPU      3.27s WALL (     109 calls)
     newd         :    167.03s CPU    181.74s WALL (     109 calls)
     mix_rho      :      3.85s CPU      3.86s WALL (     105 calls)

     Called by c_bands:
     init_us_2    :     33.03s CPU     33.06s WALL (    3206 calls)
     ccgdiagg     :   7468.51s CPU   7484.41s WALL (    1510 calls)
     wfcrot       :    267.99s CPU    268.88s WALL (    1328 calls)

     Called by sum_band:
     sum_band:bec :      0.25s CPU      0.25s WALL (    1470 calls)
     addusdens    :    278.01s CPU    294.56s WALL (     105 calls)

     Called by *cgdiagg:
     h_psi        :   3787.73s CPU   3797.03s WALL (  334265 calls)
     s_psi        :   2470.67s CPU   2474.98s WALL (  667202 calls)
     cdiaghg      :      1.75s CPU      1.82s WALL (    1328 calls)

     Called by h_psi:
     add_vuspsi   :   1285.74s CPU   1287.46s WALL (  334265 calls)
     h_1psi       :   4755.97s CPU   4766.86s WALL (  332937 calls)

     General routines
     calbec       :   2406.90s CPU   2411.67s WALL (  669302 calls)
     fft          :     28.85s CPU     28.94s WALL (    1045 calls)
     ffts         :      0.39s CPU      0.41s WALL (     214 calls)
     fftw         :    784.11s CPU    786.97s WALL (  922218 calls)
     interpolate  :      3.58s CPU      3.65s WALL (     214 calls)
     davcio       :      0.02s CPU      0.98s WALL (      14 calls)
 
     Parallel routines
     fft_scatter  :    414.33s CPU    416.26s WALL (  923477 calls)
 
     PWSCF        :     2h25m CPU        2h26m WALL

 
   This run was terminated on:  16:34: 9  26Apr2017            

=------------------------------------------------------------------------------=
   JOB DONE.
=------------------------------------------------------------------------------=
