
     Program PWSCF v.5.4.0 starts on 26Apr2017 at 15:19:27 

     This program is part of the open-source Quantum ESPRESSO suite
     for quantum simulation of materials; please cite
         "P. Giannozzi et al., J. Phys.:Condens. Matter 21 395502 (2009);
          URL http://www.quantum-espresso.org", 
     in publications or presentations arising from this work. More details at
     http://www.quantum-espresso.org/quote

     Parallel version (MPI), running on    24 processors
     R & G space division:  proc/nbgrp/npool/nimage =      24
     Waiting for input...
     Reading input from standard input
Warning: card &CELL ignored
Warning: card  CELL_DYNAMICS = 'BFGS', ignored
Warning: card  PRESS=0.1D0, ignored
Warning: card / ignored

     Current dimensions of program PWSCF are:
     Max number of different atomic species (ntypx) = 10
     Max number of k-points (npk) =  40000
     Max angular momentum in pseudopotentials (lmaxx) =  3

     Subspace diagonalization in iterative solution of the eigenvalue problem:
     a serial algorithm will be used

 
     Parallelization info
     --------------------
     sticks:   dense  smooth     PW     G-vecs:    dense   smooth      PW
     Min          75      30      8                16065     4046     618
     Max          76      31      9                16084     4087     649
     Sum        1813     733    211               385699    97593   15163
 


     bravais-lattice index     =            4
     lattice parameter (alat)  =       6.1373  a.u.
     unit-cell volume          =    1232.8803 (a.u.)^3
     number of atoms/cell      =            3
     number of atomic types    =            2
     number of electrons       =        26.00
     number of Kohn-Sham states=           13
     kinetic-energy cutoff     =      70.0000  Ry
     charge density cutoff     =     700.0000  Ry
     convergence threshold     =      1.0E-08
     mixing beta               =       0.7000
     number of iterations used =            8  plain     mixing
     Exchange-correlation      = SLA  PZ   NOGX NOGC ( 1  1  0  0 0 0)
     nstep                     =           50


     celldm(1)=   6.137346  celldm(2)=   0.000000  celldm(3)=   6.158124
     celldm(4)=   0.000000  celldm(5)=   0.000000  celldm(6)=   0.000000

     crystal axes: (cart. coord. in units of alat)
               a(1) = (   1.000000   0.000000   0.000000 )  
               a(2) = (  -0.500000   0.866025   0.000000 )  
               a(3) = (   0.000000   0.000000   6.158124 )  

     reciprocal axes: (cart. coord. in units 2 pi/alat)
               b(1) = (  1.000000  0.577350  0.000000 )  
               b(2) = (  0.000000  1.154701  0.000000 )  
               b(3) = (  0.000000  0.000000  0.162387 )  


     PseudoPot. # 1 for Mo read from file:
     /afs/crc.nd.edu/user/j/jencomen/espresso/pseudo/Mo_LDA.UPF
     MD5 check sum: f5ddb34c5c8cdf9395e9f47ee8c17b30
     Pseudo is Ultrasoft + core correction, Zval = 14.0
     Generated by new atomic code, or converted to UPF format
     Using radial grid of  889 points,  6 beta functions with: 
                l(1) =   0
                l(2) =   0
                l(3) =   1
                l(4) =   1
                l(5) =   2
                l(6) =   2
     Q(r) pseudized with  6 coefficients,  rinner =    1.000   1.000   1.000
                                                       1.000   1.000

     PseudoPot. # 2 for Se read from file:
     /afs/crc.nd.edu/user/j/jencomen/espresso/pseudo/Se_LDA.UPF
     MD5 check sum: 29da00cbf48820a058e3666752a4b224
     Pseudo is Ultrasoft + core correction, Zval =  6.0
     Generated by new atomic code, or converted to UPF format
     Using radial grid of  877 points,  6 beta functions with: 
                l(1) =   0
                l(2) =   0
                l(3) =   1
                l(4) =   1
                l(5) =   2
                l(6) =   2
     Q(r) pseudized with  8 coefficients,  rinner =    1.300   1.300   1.300
                                                       1.300   1.300

     atomic species   valence    mass     pseudopotential
        Mo            14.00    95.95000     Mo( 1.00)
        Se             6.00    78.97100     Se( 1.00)

      6 Sym. Ops. (no inversion) found



   Cartesian axes

     site n.     atom                  positions (alat units)
         1           Mo  tau(   1) = (   0.0000000   0.5773500   0.9803446  )
         2           Se  tau(   2) = (   0.4999997   0.2886749   1.4862022  )
         3           Se  tau(   3) = (   0.4999997   0.2886749   0.4744869  )

     number of k points=    14
                       cart. coord. in units 2pi/alat
        k(    1) = (   0.0000000   0.0000000   0.0000000), wk =   0.0200000
        k(    2) = (   0.0000000   0.1154701   0.0000000), wk =   0.1200000
        k(    3) = (   0.0000000   0.2309401   0.0000000), wk =   0.1200000
        k(    4) = (   0.0000000   0.3464102   0.0000000), wk =   0.1200000
        k(    5) = (   0.0000000   0.4618802   0.0000000), wk =   0.1200000
        k(    6) = (   0.0000000  -0.5773503   0.0000000), wk =   0.0600000
        k(    7) = (   0.1000000   0.1732051   0.0000000), wk =   0.1200000
        k(    8) = (   0.1000000   0.2886751   0.0000000), wk =   0.2400000
        k(    9) = (   0.1000000   0.4041452   0.0000000), wk =   0.2400000
        k(   10) = (   0.1000000   0.5196152   0.0000000), wk =   0.2400000
        k(   11) = (   0.2000000   0.3464102   0.0000000), wk =   0.1200000
        k(   12) = (   0.2000000   0.4618802   0.0000000), wk =   0.2400000
        k(   13) = (   0.2000000   0.5773503   0.0000000), wk =   0.1200000
        k(   14) = (   0.3000000   0.5196152   0.0000000), wk =   0.1200000

     Dense  grid:   385699 G-vectors     FFT dimensions: (  54,  54, 320)

     Smooth grid:    97593 G-vectors     FFT dimensions: (  36,  36, 216)

     Largest allocated arrays     est. size (Mb)     dimensions
        Kohn-Sham Wavefunctions         0.10 Mb     (     528,   13)
        NL pseudopotentials             0.44 Mb     (     528,   54)
        Each V/rho on FFT grid          0.62 Mb     (   40824)
        Each G-vector array             0.12 Mb     (   16072)
        G-vector shells                 0.05 Mb     (    6955)
     Largest temporary arrays     est. size (Mb)     dimensions
        Each subspace H/S matrix        0.00 Mb     (      13,   13)
        Each <psi_i|beta_j> matrix      0.01 Mb     (      54,   13)
        Arrays for rho mixing           4.98 Mb     (   40824,    8)

     Initial potential from superposition of free atoms
     Check: negative starting charge=   -0.000199

     starting charge   25.99903, renormalised to   26.00000

     negative rho (up, down):  1.986E-04 0.000E+00
     Starting wfc are   21 randomized atomic wfcs

     total cpu time spent up to now is        2.3 secs

     per-process dynamical memory:    32.5 Mb

     Self-consistent Calculation

     iteration #  1     ecut=    70.00 Ry     beta=0.70
     CG style diagonalization
     ethr =  1.00E-02,  avg # of iterations =  2.5

     negative rho (up, down):  1.088E-06 0.000E+00

     total cpu time spent up to now is        3.2 secs

     total energy              =    -225.85319101 Ry
     Harris-Foulkes estimate   =    -226.06381293 Ry
     estimated scf accuracy    <       0.26128707 Ry

     iteration #  2     ecut=    70.00 Ry     beta=0.70
     CG style diagonalization
     ethr =  1.00E-03,  avg # of iterations =  5.0

     negative rho (up, down):  2.359E-06 0.000E+00

     total cpu time spent up to now is        4.4 secs

     total energy              =    -225.72769868 Ry
     Harris-Foulkes estimate   =    -226.43181186 Ry
     estimated scf accuracy    <       2.41680037 Ry

     iteration #  3     ecut=    70.00 Ry     beta=0.70
     CG style diagonalization
     ethr =  1.00E-03,  avg # of iterations =  4.4

     negative rho (up, down):  2.204E-05 0.000E+00

     total cpu time spent up to now is        5.5 secs

     total energy              =    -226.01137521 Ry
     Harris-Foulkes estimate   =    -226.01474974 Ry
     estimated scf accuracy    <       0.00773669 Ry

     iteration #  4     ecut=    70.00 Ry     beta=0.70
     CG style diagonalization
     ethr =  2.98E-05,  avg # of iterations =  5.4

     negative rho (up, down):  1.288E-05 0.000E+00

     total cpu time spent up to now is        6.6 secs

     total energy              =    -226.02854204 Ry
     Harris-Foulkes estimate   =    -226.03546762 Ry
     estimated scf accuracy    <       0.05035238 Ry

     iteration #  5     ecut=    70.00 Ry     beta=0.70
     CG style diagonalization
     ethr =  2.98E-05,  avg # of iterations =  3.6

     negative rho (up, down):  1.755E-05 0.000E+00

     total cpu time spent up to now is        7.6 secs

     total energy              =    -226.02251823 Ry
     Harris-Foulkes estimate   =    -226.02966725 Ry
     estimated scf accuracy    <       0.02299844 Ry

     iteration #  6     ecut=    70.00 Ry     beta=0.70
     CG style diagonalization
     ethr =  2.98E-05,  avg # of iterations =  4.4

     negative rho (up, down):  2.201E-05 0.000E+00

     total cpu time spent up to now is        8.7 secs

     total energy              =    -226.02721091 Ry
     Harris-Foulkes estimate   =    -226.02738671 Ry
     estimated scf accuracy    <       0.00182699 Ry

     iteration #  7     ecut=    70.00 Ry     beta=0.70
     CG style diagonalization
     ethr =  7.03E-06,  avg # of iterations =  3.3

     negative rho (up, down):  2.638E-05 0.000E+00

     total cpu time spent up to now is        9.6 secs

     total energy              =    -226.02714656 Ry
     Harris-Foulkes estimate   =    -226.02736719 Ry
     estimated scf accuracy    <       0.00147104 Ry

     iteration #  8     ecut=    70.00 Ry     beta=0.70
     CG style diagonalization
     ethr =  5.66E-06,  avg # of iterations =  3.1

     negative rho (up, down):  3.186E-05 0.000E+00

     total cpu time spent up to now is       10.5 secs

     total energy              =    -226.02704636 Ry
     Harris-Foulkes estimate   =    -226.02720572 Ry
     estimated scf accuracy    <       0.00071383 Ry

     iteration #  9     ecut=    70.00 Ry     beta=0.70
     CG style diagonalization
     ethr =  2.75E-06,  avg # of iterations =  3.6

     negative rho (up, down):  3.236E-05 0.000E+00

     total cpu time spent up to now is       11.5 secs

     total energy              =    -226.02716648 Ry
     Harris-Foulkes estimate   =    -226.02717742 Ry
     estimated scf accuracy    <       0.00005826 Ry

     iteration # 10     ecut=    70.00 Ry     beta=0.70
     CG style diagonalization
     ethr =  2.24E-07,  avg # of iterations =  4.2

     negative rho (up, down):  3.218E-05 0.000E+00

     total cpu time spent up to now is       12.5 secs

     total energy              =    -226.02719574 Ry
     Harris-Foulkes estimate   =    -226.02720419 Ry
     estimated scf accuracy    <       0.00004019 Ry

     iteration # 11     ecut=    70.00 Ry     beta=0.70
     CG style diagonalization
     ethr =  1.55E-07,  avg # of iterations =  3.6

     negative rho (up, down):  3.221E-05 0.000E+00

     total cpu time spent up to now is       13.4 secs

     total energy              =    -226.02720006 Ry
     Harris-Foulkes estimate   =    -226.02720163 Ry
     estimated scf accuracy    <       0.00001231 Ry

     iteration # 12     ecut=    70.00 Ry     beta=0.70
     CG style diagonalization
     ethr =  4.73E-08,  avg # of iterations =  4.1

     negative rho (up, down):  3.247E-05 0.000E+00

     total cpu time spent up to now is       14.5 secs

     total energy              =    -226.02720326 Ry
     Harris-Foulkes estimate   =    -226.02720370 Ry
     estimated scf accuracy    <       0.00000280 Ry

     iteration # 13     ecut=    70.00 Ry     beta=0.70
     CG style diagonalization
     ethr =  1.08E-08,  avg # of iterations =  4.9

     negative rho (up, down):  3.266E-05 0.000E+00

     total cpu time spent up to now is       15.6 secs

     total energy              =    -226.02720529 Ry
     Harris-Foulkes estimate   =    -226.02720535 Ry
     estimated scf accuracy    <       0.00000019 Ry

     iteration # 14     ecut=    70.00 Ry     beta=0.70
     CG style diagonalization
     ethr =  7.50E-10,  avg # of iterations =  7.0

     negative rho (up, down):  3.278E-05 0.000E+00

     total cpu time spent up to now is       16.9 secs

     total energy              =    -226.02720591 Ry
     Harris-Foulkes estimate   =    -226.02720595 Ry
     estimated scf accuracy    <       0.00000024 Ry

     iteration # 15     ecut=    70.00 Ry     beta=0.70
     CG style diagonalization
     ethr =  7.50E-10,  avg # of iterations =  3.8

     negative rho (up, down):  3.285E-05 0.000E+00

     total cpu time spent up to now is       17.9 secs

     total energy              =    -226.02720591 Ry
     Harris-Foulkes estimate   =    -226.02720596 Ry
     estimated scf accuracy    <       0.00000022 Ry

     iteration # 16     ecut=    70.00 Ry     beta=0.70
     CG style diagonalization
     ethr =  7.50E-10,  avg # of iterations =  3.3

     negative rho (up, down):  3.287E-05 0.000E+00

     total cpu time spent up to now is       18.8 secs

     total energy              =    -226.02720591 Ry
     Harris-Foulkes estimate   =    -226.02720593 Ry
     estimated scf accuracy    <       0.00000006 Ry

     iteration # 17     ecut=    70.00 Ry     beta=0.70
     CG style diagonalization
     ethr =  2.43E-10,  avg # of iterations =  4.1

     negative rho (up, down):  3.287E-05 0.000E+00

     total cpu time spent up to now is       19.8 secs

     total energy              =    -226.02720593 Ry
     Harris-Foulkes estimate   =    -226.02720594 Ry
     estimated scf accuracy    <       0.00000002 Ry

     iteration # 18     ecut=    70.00 Ry     beta=0.70
     CG style diagonalization
     ethr =  7.26E-11,  avg # of iterations =  4.4

     negative rho (up, down):  3.286E-05 0.000E+00

     total cpu time spent up to now is       20.9 secs

     total energy              =    -226.02720594 Ry
     Harris-Foulkes estimate   =    -226.02720594 Ry
     estimated scf accuracy    <       0.00000002 Ry

     iteration # 19     ecut=    70.00 Ry     beta=0.70
     CG style diagonalization
     ethr =  7.26E-11,  avg # of iterations =  3.1

     negative rho (up, down):  3.285E-05 0.000E+00

     total cpu time spent up to now is       21.8 secs

     total energy              =    -226.02720594 Ry
     Harris-Foulkes estimate   =    -226.02720594 Ry
     estimated scf accuracy    <       0.00000001 Ry

     iteration # 20     ecut=    70.00 Ry     beta=0.70
     CG style diagonalization
     ethr =  5.04E-11,  avg # of iterations =  3.9

     negative rho (up, down):  3.286E-05 0.000E+00

     total cpu time spent up to now is       22.8 secs

     End of self-consistent calculation

          k = 0.0000 0.0000 0.0000 ( 12191 PWs)   bands (ev):

   -61.0549 -35.3127 -35.0759 -35.0759 -14.9596 -13.8467  -6.0966  -2.6838
    -2.6838  -2.3814  -1.6138  -1.6138  -0.7785

          k = 0.0000 0.1155 0.0000 ( 12132 PWs)   bands (ev):

   -61.0521 -35.3062 -35.1065 -35.0829 -14.8127 -13.7697  -5.9209  -3.0414
    -2.8088  -2.5339  -1.8472  -1.4110  -0.8143

          k = 0.0000 0.2309 0.0000 ( 12160 PWs)   bands (ev):

   -61.0446 -35.2891 -35.1858 -35.1009 -14.4015 -13.5547  -5.4973  -3.8349
    -3.5523  -2.3556  -2.1271  -1.5508  -1.0732

          k = 0.0000 0.3464 0.0000 ( 12202 PWs)   bands (ev):

   -61.0354 -35.2824 -35.2680 -35.1232 -13.8208 -13.2553  -5.4168  -4.4023
    -4.3671  -2.8600  -1.9971  -1.6024  -1.4804

          k = 0.0000 0.4619 0.0000 ( 12214 PWs)   bands (ev):

   -61.0279 -35.3595 -35.2508 -35.1411 -13.2604 -12.9763  -6.0447  -5.1356
    -4.3792  -3.2062  -2.2851  -1.4003  -1.1836

          k = 0.0000-0.5774 0.0000 ( 12190 PWs)   bands (ev):

   -61.0250 -35.3886 -35.2442 -35.1479 -13.0135 -12.8582  -6.3699  -5.4288
    -4.4185  -3.3278  -2.3698  -1.1757  -1.0358

          k = 0.1000 0.1732 0.0000 ( 12146 PWs)   bands (ev):

   -61.0469 -35.2944 -35.1592 -35.0976 -14.5333 -13.6234  -5.6124  -3.5947
    -3.2677  -2.4412  -2.2846  -1.2497  -0.9594

          k = 0.1000 0.2887 0.0000 ( 12188 PWs)   bands (ev):

   -61.0386 -35.2753 -35.2418 -35.1231 -14.0342 -13.3632  -5.2754  -4.2275
    -3.9472  -3.1399  -2.0470  -1.4571  -1.2394

          k = 0.1000 0.4041 0.0000 ( 12210 PWs)   bands (ev):

   -61.0302 -35.3230 -35.2561 -35.1488 -13.4515 -13.0652  -5.6480  -4.8170
    -4.2969  -3.4060  -2.1174  -1.9393  -1.1134

          k = 0.1000 0.5196 0.0000 ( 12212 PWs)   bands (ev):

   -61.0250 -35.3725 -35.2442 -35.1646 -13.0268 -12.8553  -6.1492  -5.3900
    -4.3468  -3.4487  -2.2908  -2.0080  -0.8450

          k = 0.2000 0.3464 0.0000 ( 12190 PWs)   bands (ev):

   -61.0311 -35.2989 -35.2581 -35.1620 -13.5243 -13.0972  -5.3949  -4.5736
    -4.1833  -3.7097  -2.6174  -1.6281  -1.1160

          k = 0.2000 0.4619 0.0000 ( 12201 PWs)   bands (ev):

   -61.0250 -35.3388 -35.2442 -35.1993 -13.0479 -12.8506  -5.6942  -5.3121
    -4.1220  -3.6742  -3.1126  -2.1139  -0.8843

          k = 0.2000 0.5774 0.0000 ( 12210 PWs)   bands (ev):

   -61.0227 -35.3528 -35.2389 -35.2148 -12.8451 -12.7466  -5.8186  -5.6042
    -4.2724  -3.5595  -3.1693  -2.4004  -0.6632

          k = 0.3000 0.5196 0.0000 ( 12200 PWs)   bands (ev):

   -61.0218 -35.3251 -35.2542 -35.2369 -12.7786 -12.7022  -5.6977  -5.3965
    -4.3134  -3.8526  -3.5498  -2.4871  -0.5650

     highest occupied level (ev):    -0.5650

!    total energy              =    -226.02720594 Ry
     Harris-Foulkes estimate   =    -226.02720594 Ry
     estimated scf accuracy    <          4.8E-09 Ry

     The total energy is the sum of the following terms:

     one-electron contribution =   -1050.44124635 Ry
     hartree contribution      =     526.43872834 Ry
     xc contribution           =     -77.97010944 Ry
     ewald contribution        =     375.94542152 Ry

     convergence has been achieved in  20 iterations

     negative rho (up, down):  3.286E-05 0.000E+00

     Forces acting on atoms (Ry/au):

     atom    1 type  1   force =     0.00000000   -0.00000000   -0.00000152
     atom    2 type  2   force =     0.00000000    0.00000000    0.00870060
     atom    3 type  2   force =     0.00000000    0.00000000   -0.00869908

     Total force =     0.012303     Total SCF correction =     0.000233


     entering subroutine stress ...


     negative rho (up, down):  3.286E-05 0.000E+00
          total   stress  (Ry/bohr**3)                   (kbar)     P=    2.89
   0.00000839   0.00000000   0.00000000          1.23      0.00      0.00
   0.00000000   0.00000839   0.00000000          0.00      1.23      0.00
   0.00000000   0.00000000   0.00004214          0.00      0.00      6.20


     BFGS Geometry Optimization

     number of scf cycles    =   1
     number of bfgs steps    =   0

     energy   new            =    -226.0272059378 Ry

     new trust radius        =       0.0087005967 bohr
     new conv_thr            =       0.0000000100 Ry


ATOMIC_POSITIONS (angstrom)
Mo       0.000000000   1.875085000   3.183907198
Se       1.623871000   0.937542000   4.831408157
Se       1.623871000   0.937542000   1.536408644



     Writing output data file mose2_0.save
     Check: negative starting charge=   -0.000199
     NEW-OLD atomic charge density approx. for the potential
     Check: negative starting charge=   -0.000199

     negative rho (up, down):  3.587E-05 0.000E+00

     total cpu time spent up to now is       26.5 secs

     per-process dynamical memory:    40.0 Mb

     Self-consistent Calculation

     iteration #  1     ecut=    70.00 Ry     beta=0.70
     CG style diagonalization
     ethr =  1.00E-06,  avg # of iterations =  3.2

     Threshold (ethr) on eigenvalues was too large:
     Diagonalizing with lowered threshold

     CG style diagonalization
     ethr =  1.10E-08,  avg # of iterations =  5.6

     negative rho (up, down):  3.338E-05 0.000E+00

     total cpu time spent up to now is       28.5 secs

     total energy              =    -226.02732495 Ry
     Harris-Foulkes estimate   =    -226.02733029 Ry
     estimated scf accuracy    <       0.00000760 Ry

     iteration #  2     ecut=    70.00 Ry     beta=0.70
     CG style diagonalization
     ethr =  2.92E-08,  avg # of iterations =  5.2

     negative rho (up, down):  3.284E-05 0.000E+00

     total cpu time spent up to now is       29.6 secs

     total energy              =    -226.02732018 Ry
     Harris-Foulkes estimate   =    -226.02733833 Ry
     estimated scf accuracy    <       0.00006311 Ry

     iteration #  3     ecut=    70.00 Ry     beta=0.70
     CG style diagonalization
     ethr =  2.92E-08,  avg # of iterations =  4.5

     negative rho (up, down):  3.273E-05 0.000E+00

     total cpu time spent up to now is       30.7 secs

     total energy              =    -226.02732846 Ry
     Harris-Foulkes estimate   =    -226.02732876 Ry
     estimated scf accuracy    <       0.00000058 Ry

     iteration #  4     ecut=    70.00 Ry     beta=0.70
     CG style diagonalization
     ethr =  2.23E-09,  avg # of iterations =  4.7

     negative rho (up, down):  3.273E-05 0.000E+00

     total cpu time spent up to now is       31.8 secs

     total energy              =    -226.02732865 Ry
     Harris-Foulkes estimate   =    -226.02732904 Ry
     estimated scf accuracy    <       0.00000127 Ry

     iteration #  5     ecut=    70.00 Ry     beta=0.70
     CG style diagonalization
     ethr =  2.23E-09,  avg # of iterations =  4.2

     negative rho (up, down):  3.273E-05 0.000E+00

     total cpu time spent up to now is       32.8 secs

     total energy              =    -226.02732883 Ry
     Harris-Foulkes estimate   =    -226.02732895 Ry
     estimated scf accuracy    <       0.00000048 Ry

     iteration #  6     ecut=    70.00 Ry     beta=0.70
     CG style diagonalization
     ethr =  1.83E-09,  avg # of iterations =  3.4

     negative rho (up, down):  3.273E-05 0.000E+00

     total cpu time spent up to now is       33.7 secs

     total energy              =    -226.02732884 Ry
     Harris-Foulkes estimate   =    -226.02732887 Ry
     estimated scf accuracy    <       0.00000009 Ry

     iteration #  7     ecut=    70.00 Ry     beta=0.70
     CG style diagonalization
     ethr =  3.32E-10,  avg # of iterations =  4.2

     negative rho (up, down):  3.273E-05 0.000E+00

     total cpu time spent up to now is       34.8 secs

     total energy              =    -226.02732888 Ry
     Harris-Foulkes estimate   =    -226.02732888 Ry
     estimated scf accuracy    <       0.00000003 Ry

     iteration #  8     ecut=    70.00 Ry     beta=0.70
     CG style diagonalization
     ethr =  1.30E-10,  avg # of iterations =  3.5

     negative rho (up, down):  3.272E-05 0.000E+00

     total cpu time spent up to now is       35.7 secs

     total energy              =    -226.02732888 Ry
     Harris-Foulkes estimate   =    -226.02732888 Ry
     estimated scf accuracy    <       0.00000002 Ry

     iteration #  9     ecut=    70.00 Ry     beta=0.70
     CG style diagonalization
     ethr =  8.79E-11,  avg # of iterations =  3.3

     negative rho (up, down):  3.271E-05 0.000E+00

     total cpu time spent up to now is       36.6 secs

     End of self-consistent calculation

          k = 0.0000 0.0000 0.0000 ( 12191 PWs)   bands (ev):

   -61.0532 -35.3096 -35.0717 -35.0717 -14.9431 -13.8442  -6.0814  -2.6561
    -2.6561  -2.3901  -1.5924  -1.5924  -0.7888

          k = 0.0000 0.1155 0.0000 ( 12132 PWs)   bands (ev):

   -61.0503 -35.3031 -35.1022 -35.0786 -14.7964 -13.7667  -5.9054  -3.0148
    -2.8057  -2.5066  -1.8256  -1.4030  -0.8228

          k = 0.0000 0.2309 0.0000 ( 12160 PWs)   bands (ev):

   -61.0429 -35.2861 -35.1812 -35.0967 -14.3855 -13.5501  -5.4797  -3.8131
    -3.5421  -2.3336  -2.1010  -1.5537  -1.0760

          k = 0.0000 0.3464 0.0000 ( 12202 PWs)   bands (ev):

   -61.0337 -35.2775 -35.2651 -35.1189 -13.8051 -13.2482  -5.3943  -4.3915
    -4.3553  -2.8377  -2.0041  -1.5793  -1.4770

          k = 0.0000 0.4619 0.0000 ( 12214 PWs)   bands (ev):

   -61.0262 -35.3543 -35.2480 -35.1367 -13.2446 -12.9668  -6.0276  -5.1275
    -4.3657  -3.1837  -2.2922  -1.3953  -1.1651

          k = 0.0000-0.5774 0.0000 ( 12190 PWs)   bands (ev):

   -61.0234 -35.3833 -35.2414 -35.1435 -12.9974 -12.8476  -6.3558  -5.4222
    -4.4031  -3.3051  -2.3767  -1.1718  -1.0199

          k = 0.1000 0.1732 0.0000 ( 12146 PWs)   bands (ev):

   -61.0452 -35.2914 -35.1547 -35.0933 -14.5173 -13.6192  -5.5957  -3.5707
    -3.2596  -2.4213  -2.2584  -1.2478  -0.9639

          k = 0.1000 0.2887 0.0000 ( 12188 PWs)   bands (ev):

   -61.0369 -35.2724 -35.2370 -35.1187 -14.0185 -13.3570  -5.2539  -4.2122
    -3.9350  -3.1236  -2.0274  -1.4594  -1.2336

          k = 0.1000 0.4041 0.0000 ( 12210 PWs)   bands (ev):

   -61.0285 -35.3179 -35.2533 -35.1444 -13.4358 -13.0565  -5.6279  -4.8052
    -4.2853  -3.3904  -2.1052  -1.9434  -1.1006

          k = 0.1000 0.5196 0.0000 ( 12212 PWs)   bands (ev):

   -61.0234 -35.3673 -35.2415 -35.1602 -13.0108 -12.8448  -6.1346  -5.3800
    -4.3318  -3.4316  -2.2967  -1.9981  -0.8342

          k = 0.2000 0.3464 0.0000 ( 12190 PWs)   bands (ev):

   -61.0294 -35.2939 -35.2553 -35.1576 -13.5086 -13.0890  -5.3728  -4.5570
    -4.1729  -3.7001  -2.6042  -1.6322  -1.1040

          k = 0.2000 0.4619 0.0000 ( 12201 PWs)   bands (ev):

   -61.0234 -35.3337 -35.2415 -35.1948 -13.0320 -12.8403  -5.6777  -5.2957
    -4.1092  -3.6662  -3.1010  -2.1189  -0.8733

          k = 0.2000 0.5774 0.0000 ( 12210 PWs)   bands (ev):

   -61.0211 -35.3476 -35.2362 -35.2102 -12.8289 -12.7355  -5.8056  -5.5882
    -4.2566  -3.5514  -3.1594  -2.4060  -0.6536

          k = 0.3000 0.5196 0.0000 ( 12200 PWs)   bands (ev):

   -61.0202 -35.3199 -35.2496 -35.2342 -12.7624 -12.6909  -5.6785  -5.3836
    -4.3004  -3.8398  -3.5468  -2.4918  -0.5560

     highest occupied level (ev):    -0.5560

!    total energy              =    -226.02732888 Ry
     Harris-Foulkes estimate   =    -226.02732888 Ry
     estimated scf accuracy    <          8.2E-09 Ry

     The total energy is the sum of the following terms:

     one-electron contribution =   -1049.27766367 Ry
     hartree contribution      =     525.86213240 Ry
     xc contribution           =     -77.96219969 Ry
     ewald contribution        =     375.35040208 Ry

     convergence has been achieved in   9 iterations

     negative rho (up, down):  3.271E-05 0.000E+00

     Forces acting on atoms (Ry/au):

     atom    1 type  1   force =     0.00000000    0.00000000   -0.00001700
     atom    2 type  2   force =     0.00000000    0.00000000    0.00546068
     atom    3 type  2   force =     0.00000000   -0.00000000   -0.00544367

     Total force =     0.007711     Total SCF correction =     0.000416


     entering subroutine stress ...


     negative rho (up, down):  3.271E-05 0.000E+00
          total   stress  (Ry/bohr**3)                   (kbar)     P=    1.65
   0.00000332   0.00000000   0.00000000          0.49      0.00      0.00
   0.00000000   0.00000332   0.00000000          0.00      0.49      0.00
   0.00000000   0.00000000   0.00002709          0.00      0.00      3.98


     number of scf cycles    =   2
     number of bfgs steps    =   1

     energy   old            =    -226.0272059378 Ry
     energy   new            =    -226.0273288752 Ry

     CASE: energy  _new < energy  _old

     new trust radius        =       0.0095706564 bohr
     new conv_thr            =       0.0000000001 Ry


ATOMIC_POSITIONS (angstrom)
Mo       0.000000000   1.875085000   3.183891431
Se       1.623871000   0.937542000   4.836472731
Se       1.623871000   0.937542000   1.531359838



     Writing output data file mose2_0.save
     Check: negative starting charge=   -0.000199
     NEW-OLD atomic charge density approx. for the potential
     Check: negative starting charge=   -0.000199

     negative rho (up, down):  3.656E-05 0.000E+00

     total cpu time spent up to now is       40.1 secs

     per-process dynamical memory:    40.0 Mb

     Self-consistent Calculation

     iteration #  1     ecut=    70.00 Ry     beta=0.70
     CG style diagonalization
     ethr =  1.00E-06,  avg # of iterations =  3.3

     Threshold (ethr) on eigenvalues was too large:
     Diagonalizing with lowered threshold

     CG style diagonalization
     ethr =  3.10E-08,  avg # of iterations =  4.3

     negative rho (up, down):  3.348E-05 0.000E+00

     total cpu time spent up to now is       41.9 secs

     total energy              =    -226.02739194 Ry
     Harris-Foulkes estimate   =    -226.02740189 Ry
     estimated scf accuracy    <       0.00001344 Ry

     iteration #  2     ecut=    70.00 Ry     beta=0.70
     CG style diagonalization
     ethr =  5.17E-08,  avg # of iterations =  5.3

     negative rho (up, down):  3.279E-05 0.000E+00

     total cpu time spent up to now is       43.0 secs

     total energy              =    -226.02738259 Ry
     Harris-Foulkes estimate   =    -226.02742046 Ry
     estimated scf accuracy    <       0.00013826 Ry

     iteration #  3     ecut=    70.00 Ry     beta=0.70
     CG style diagonalization
     ethr =  5.17E-08,  avg # of iterations =  4.6

     negative rho (up, down):  3.265E-05 0.000E+00

     total cpu time spent up to now is       44.1 secs

     total energy              =    -226.02739922 Ry
     Harris-Foulkes estimate   =    -226.02739987 Ry
     estimated scf accuracy    <       0.00000109 Ry

     iteration #  4     ecut=    70.00 Ry     beta=0.70
     CG style diagonalization
     ethr =  4.21E-09,  avg # of iterations =  5.0

     negative rho (up, down):  3.264E-05 0.000E+00

     total cpu time spent up to now is       45.2 secs

     total energy              =    -226.02739972 Ry
     Harris-Foulkes estimate   =    -226.02740075 Ry
     estimated scf accuracy    <       0.00000392 Ry

     iteration #  5     ecut=    70.00 Ry     beta=0.70
     CG style diagonalization
     ethr =  4.21E-09,  avg # of iterations =  4.2

     negative rho (up, down):  3.265E-05 0.000E+00

     total cpu time spent up to now is       46.2 secs

     total energy              =    -226.02740020 Ry
     Harris-Foulkes estimate   =    -226.02740032 Ry
     estimated scf accuracy    <       0.00000046 Ry

     iteration #  6     ecut=    70.00 Ry     beta=0.70
     CG style diagonalization
     ethr =  1.79E-09,  avg # of iterations =  3.6

     negative rho (up, down):  3.265E-05 0.000E+00

     total cpu time spent up to now is       47.2 secs

     total energy              =    -226.02740023 Ry
     Harris-Foulkes estimate   =    -226.02740026 Ry
     estimated scf accuracy    <       0.00000012 Ry

     iteration #  7     ecut=    70.00 Ry     beta=0.70
     CG style diagonalization
     ethr =  4.70E-10,  avg # of iterations =  4.1

     negative rho (up, down):  3.265E-05 0.000E+00

     total cpu time spent up to now is       48.2 secs

     total energy              =    -226.02740027 Ry
     Harris-Foulkes estimate   =    -226.02740027 Ry
     estimated scf accuracy    <       0.00000002 Ry

     iteration #  8     ecut=    70.00 Ry     beta=0.70
     CG style diagonalization
     ethr =  9.27E-11,  avg # of iterations =  4.2

     negative rho (up, down):  3.264E-05 0.000E+00

     total cpu time spent up to now is       49.2 secs

     total energy              =    -226.02740028 Ry
     Harris-Foulkes estimate   =    -226.02740028 Ry
     estimated scf accuracy    <       0.00000001 Ry

     iteration #  9     ecut=    70.00 Ry     beta=0.70
     CG style diagonalization
     ethr =  4.37E-11,  avg # of iterations =  4.2

     negative rho (up, down):  3.264E-05 0.000E+00

     total cpu time spent up to now is       50.2 secs

     total energy              =    -226.02740028 Ry
     Harris-Foulkes estimate   =    -226.02740028 Ry
     estimated scf accuracy    <          1.2E-09 Ry

     iteration # 10     ecut=    70.00 Ry     beta=0.70
     CG style diagonalization
     ethr =  4.72E-12,  avg # of iterations =  6.3

     negative rho (up, down):  3.264E-05 0.000E+00

     total cpu time spent up to now is       51.5 secs

     total energy              =    -226.02740028 Ry
     Harris-Foulkes estimate   =    -226.02740028 Ry
     estimated scf accuracy    <          8.0E-10 Ry

     iteration # 11     ecut=    70.00 Ry     beta=0.70
     CG style diagonalization
     ethr =  3.08E-12,  avg # of iterations =  3.9

     negative rho (up, down):  3.264E-05 0.000E+00

     total cpu time spent up to now is       52.5 secs

     total energy              =    -226.02740028 Ry
     Harris-Foulkes estimate   =    -226.02740028 Ry
     estimated scf accuracy    <          1.8E-10 Ry

     iteration # 12     ecut=    70.00 Ry     beta=0.70
     CG style diagonalization
     ethr =  6.77E-13,  avg # of iterations =  5.0

     negative rho (up, down):  3.264E-05 0.000E+00

     total cpu time spent up to now is       53.6 secs

     End of self-consistent calculation

          k = 0.0000 0.0000 0.0000 ( 12191 PWs)   bands (ev):

   -61.0508 -35.3057 -35.0668 -35.0668 -14.9251 -13.8414  -6.0648  -2.6258
    -2.6258  -2.3997  -1.5687  -1.5687  -0.7998

          k = 0.0000 0.1155 0.0000 ( 12132 PWs)   bands (ev):

   -61.0480 -35.2993 -35.0971 -35.0737 -14.7786 -13.7633  -5.8883  -2.9855
    -2.8026  -2.4766  -1.8018  -1.3937  -0.8319

          k = 0.0000 0.2309 0.0000 ( 12160 PWs)   bands (ev):

   -61.0406 -35.2825 -35.1758 -35.0916 -14.3682 -13.5449  -5.4604  -3.7891
    -3.5309  -2.3094  -2.0724  -1.5567  -1.0787

          k = 0.0000 0.3464 0.0000 ( 12202 PWs)   bands (ev):

   -61.0314 -35.2717 -35.2616 -35.1138 -13.7881 -13.2405  -5.3695  -4.3795
    -4.3424  -2.8130  -2.0117  -1.5539  -1.4730

          k = 0.0000 0.4619 0.0000 ( 12214 PWs)   bands (ev):

   -61.0240 -35.3482 -35.2446 -35.1316 -13.2274 -12.9563  -6.0089  -5.1184
    -4.3509  -3.1588  -2.2999  -1.3897  -1.1448

          k = 0.0000-0.5774 0.0000 ( 12190 PWs)   bands (ev):

   -61.0212 -35.3772 -35.2381 -35.1384 -12.9799 -12.8359  -6.3404  -5.4148
    -4.3862  -3.2802  -2.3842  -1.1675  -1.0026

          k = 0.1000 0.1732 0.0000 ( 12146 PWs)   bands (ev):

   -61.0429 -35.2877 -35.1495 -35.0883 -14.4999 -13.6147  -5.5774  -3.5444
    -3.2507  -2.3994  -2.2297  -1.2455  -0.9685

          k = 0.1000 0.2887 0.0000 ( 12188 PWs)   bands (ev):

   -61.0346 -35.2688 -35.2314 -35.1136 -14.0014 -13.3503  -5.2304  -4.1955
    -3.9216  -3.1056  -2.0060  -1.4617  -1.2268

          k = 0.1000 0.4041 0.0000 ( 12210 PWs)   bands (ev):

   -61.0263 -35.3120 -35.2498 -35.1392 -13.4188 -13.0471  -5.6058  -4.7923
    -4.2725  -3.3732  -2.0917  -1.9478  -1.0864

          k = 0.1000 0.5196 0.0000 ( 12212 PWs)   bands (ev):

   -61.0212 -35.3612 -35.2381 -35.1549 -12.9934 -12.8333  -6.1185  -5.3691
    -4.3153  -3.4127  -2.3029  -1.9873  -0.8224

          k = 0.2000 0.3464 0.0000 ( 12190 PWs)   bands (ev):

   -61.0272 -35.2881 -35.2519 -35.1524 -13.4917 -13.0800  -5.3485  -4.5389
    -4.1616  -3.6893  -2.5897  -1.6365  -1.0908

          k = 0.2000 0.4619 0.0000 ( 12201 PWs)   bands (ev):

   -61.0212 -35.3277 -35.2381 -35.1894 -13.0147 -12.8291  -5.6596  -5.2777
    -4.0952  -3.6573  -3.0883  -2.1242  -0.8612

          k = 0.2000 0.5774 0.0000 ( 12210 PWs)   bands (ev):

   -61.0189 -35.3415 -35.2329 -35.2048 -12.8114 -12.7233  -5.7912  -5.5707
    -4.2392  -3.5424  -3.1484  -2.4120  -0.6429

          k = 0.3000 0.5196 0.0000 ( 12200 PWs)   bands (ev):

   -61.0180 -35.3139 -35.2441 -35.2309 -12.7449 -12.6785  -5.6575  -5.3694
    -4.2860  -3.8258  -3.5434  -2.4968  -0.5459

     highest occupied level (ev):    -0.5459

!    total energy              =    -226.02740028 Ry
     Harris-Foulkes estimate   =    -226.02740028 Ry
     estimated scf accuracy    <          6.6E-12 Ry

     The total energy is the sum of the following terms:

     one-electron contribution =   -1047.99547830 Ry
     hartree contribution      =     525.22453946 Ry
     xc contribution           =     -77.95346475 Ry
     ewald contribution        =     374.69700331 Ry

     convergence has been achieved in  12 iterations

     negative rho (up, down):  3.264E-05 0.000E+00

     Forces acting on atoms (Ry/au):

     atom    1 type  1   force =     0.00000000    0.00000000    0.00002739
     atom    2 type  2   force =     0.00000000    0.00000000    0.00196066
     atom    3 type  2   force =     0.00000000    0.00000000   -0.00198805

     Total force =     0.002792     Total SCF correction =     0.000013


     entering subroutine stress ...


     negative rho (up, down):  3.264E-05 0.000E+00
          total   stress  (Ry/bohr**3)                   (kbar)     P=    0.09
  -0.00000353   0.00000000   0.00000000         -0.52      0.00      0.00
   0.00000000  -0.00000353  -0.00000000          0.00     -0.52     -0.00
   0.00000000   0.00000000   0.00000899          0.00      0.00      1.32


     number of scf cycles    =   3
     number of bfgs steps    =   2

     energy   old            =    -226.0273288752 Ry
     energy   new            =    -226.0274002818 Ry

     CASE: energy  _new < energy  _old

     new trust radius        =       0.0054427974 bohr
     new conv_thr            =            1.0E-10 Ry


ATOMIC_POSITIONS (angstrom)
Mo       0.000000000   1.875085000   3.183910305
Se       1.623871000   0.937542000   4.839334061
Se       1.623871000   0.937542000   1.528479634



     Writing output data file mose2_0.save
     Check: negative starting charge=   -0.000199
     NEW-OLD atomic charge density approx. for the potential
     Check: negative starting charge=   -0.000199

     negative rho (up, down):  3.400E-05 0.000E+00

     total cpu time spent up to now is       57.0 secs

     per-process dynamical memory:    40.0 Mb

     Self-consistent Calculation

     iteration #  1     ecut=    70.00 Ry     beta=0.70
     CG style diagonalization
     ethr =  1.00E-06,  avg # of iterations =  2.8

     Threshold (ethr) on eigenvalues was too large:
     Diagonalizing with lowered threshold

     CG style diagonalization
     c_bands:  1 eigenvalues not converged
     ethr =  4.06E-09,  avg # of iterations =  6.0

     negative rho (up, down):  3.297E-05 0.000E+00

     total cpu time spent up to now is       59.0 secs

     total energy              =    -226.02740947 Ry
     Harris-Foulkes estimate   =    -226.02741219 Ry
     estimated scf accuracy    <       0.00000386 Ry

     iteration #  2     ecut=    70.00 Ry     beta=0.70
     CG style diagonalization
     ethr =  1.48E-08,  avg # of iterations =  5.3

     negative rho (up, down):  3.268E-05 0.000E+00

     total cpu time spent up to now is       60.1 secs

     total energy              =    -226.02740702 Ry
     Harris-Foulkes estimate   =    -226.02741739 Ry
     estimated scf accuracy    <       0.00003796 Ry

     iteration #  3     ecut=    70.00 Ry     beta=0.70
     CG style diagonalization
     ethr =  1.48E-08,  avg # of iterations =  4.5

     negative rho (up, down):  3.262E-05 0.000E+00

     total cpu time spent up to now is       61.2 secs

     total energy              =    -226.02741159 Ry
     Harris-Foulkes estimate   =    -226.02741169 Ry
     estimated scf accuracy    <       0.00000017 Ry

     iteration #  4     ecut=    70.00 Ry     beta=0.70
     CG style diagonalization
     ethr =  6.50E-10,  avg # of iterations =  5.0

     negative rho (up, down):  3.262E-05 0.000E+00

     total cpu time spent up to now is       62.3 secs

     total energy              =    -226.02741178 Ry
     Harris-Foulkes estimate   =    -226.02741181 Ry
     estimated scf accuracy    <       0.00000011 Ry

     iteration #  5     ecut=    70.00 Ry     beta=0.70
     CG style diagonalization
     ethr =  4.13E-10,  avg # of iterations =  3.5

     negative rho (up, down):  3.262E-05 0.000E+00

     total cpu time spent up to now is       63.2 secs

     total energy              =    -226.02741178 Ry
     Harris-Foulkes estimate   =    -226.02741179 Ry
     estimated scf accuracy    <       0.00000003 Ry

     iteration #  6     ecut=    70.00 Ry     beta=0.70
     CG style diagonalization
     ethr =  1.24E-10,  avg # of iterations =  4.0

     negative rho (up, down):  3.262E-05 0.000E+00

     total cpu time spent up to now is       64.3 secs

     total energy              =    -226.02741179 Ry
     Harris-Foulkes estimate   =    -226.02741179 Ry
     estimated scf accuracy    <          9.6E-09 Ry

     iteration #  7     ecut=    70.00 Ry     beta=0.70
     CG style diagonalization
     ethr =  3.70E-11,  avg # of iterations =  3.9

     negative rho (up, down):  3.262E-05 0.000E+00

     total cpu time spent up to now is       65.3 secs

     total energy              =    -226.02741179 Ry
     Harris-Foulkes estimate   =    -226.02741179 Ry
     estimated scf accuracy    <          5.8E-09 Ry

     iteration #  8     ecut=    70.00 Ry     beta=0.70
     CG style diagonalization
     ethr =  2.23E-11,  avg # of iterations =  3.5

     negative rho (up, down):  3.262E-05 0.000E+00

     total cpu time spent up to now is       66.3 secs

     total energy              =    -226.02741179 Ry
     Harris-Foulkes estimate   =    -226.02741179 Ry
     estimated scf accuracy    <          2.3E-09 Ry

     iteration #  9     ecut=    70.00 Ry     beta=0.70
     CG style diagonalization
     ethr =  8.93E-12,  avg # of iterations =  4.1

     negative rho (up, down):  3.262E-05 0.000E+00

     total cpu time spent up to now is       67.3 secs

     total energy              =    -226.02741179 Ry
     Harris-Foulkes estimate   =    -226.02741179 Ry
     estimated scf accuracy    <          1.3E-10 Ry

     iteration # 10     ecut=    70.00 Ry     beta=0.70
     CG style diagonalization
     ethr =  4.98E-13,  avg # of iterations =  7.5

     negative rho (up, down):  3.262E-05 0.000E+00

     total cpu time spent up to now is       68.7 secs

     total energy              =    -226.02741179 Ry
     Harris-Foulkes estimate   =    -226.02741179 Ry
     estimated scf accuracy    <          2.3E-10 Ry

     iteration # 11     ecut=    70.00 Ry     beta=0.70
     CG style diagonalization
     ethr =  4.98E-13,  avg # of iterations =  3.5

     negative rho (up, down):  3.262E-05 0.000E+00

     total cpu time spent up to now is       69.7 secs

     End of self-consistent calculation

          k = 0.0000 0.0000 0.0000 ( 12191 PWs)   bands (ev):

   -61.0496 -35.3037 -35.0641 -35.0641 -14.9150 -13.8398  -6.0554  -2.6087
    -2.6087  -2.4050  -1.5554  -1.5554  -0.8060

          k = 0.0000 0.1155 0.0000 ( 12132 PWs)   bands (ev):

   -61.0468 -35.2973 -35.0943 -35.0709 -14.7687 -13.7614  -5.8787  -2.9690
    -2.8010  -2.4597  -1.7883  -1.3883  -0.8370

          k = 0.0000 0.2309 0.0000 ( 12160 PWs)   bands (ev):

   -61.0394 -35.2805 -35.1729 -35.0889 -14.3585 -13.5420  -5.4495  -3.7756
    -3.5246  -2.2957  -2.0563  -1.5583  -1.0803

          k = 0.0000 0.3464 0.0000 ( 12202 PWs)   bands (ev):

   -61.0303 -35.2686 -35.2597 -35.1110 -13.7785 -13.2361  -5.3556  -4.3727
    -4.3351  -2.7991  -2.0159  -1.5396  -1.4708

          k = 0.0000 0.4619 0.0000 ( 12214 PWs)   bands (ev):

   -61.0229 -35.3449 -35.2428 -35.1288 -13.2177 -12.9504  -5.9984  -5.1133
    -4.3425  -3.1447  -2.3043  -1.3866  -1.1334

          k = 0.0000-0.5774 0.0000 ( 12190 PWs)   bands (ev):

   -61.0200 -35.3738 -35.2363 -35.1355 -12.9701 -12.8293  -6.3316  -5.4106
    -4.3766  -3.2661  -2.3884  -1.1651  -0.9928

          k = 0.1000 0.1732 0.0000 ( 12146 PWs)   bands (ev):

   -61.0417 -35.2857 -35.1466 -35.0855 -14.4901 -13.6121  -5.5672  -3.5295
    -3.2458  -2.3871  -2.2135  -1.2440  -0.9711

          k = 0.1000 0.2887 0.0000 ( 12188 PWs)   bands (ev):

   -61.0334 -35.2669 -35.2284 -35.1109 -13.9918 -13.3464  -5.2171  -4.1860
    -3.9141  -3.0956  -1.9941  -1.4630  -1.2229

          k = 0.1000 0.4041 0.0000 ( 12210 PWs)   bands (ev):

   -61.0251 -35.3087 -35.2480 -35.1363 -13.4092 -13.0417  -5.5933  -4.7850
    -4.2653  -3.3635  -2.0842  -1.9502  -1.0784

          k = 0.1000 0.5196 0.0000 ( 12212 PWs)   bands (ev):

   -61.0200 -35.3579 -35.2363 -35.1521 -12.9836 -12.8268  -6.1094  -5.3630
    -4.3059  -3.4020  -2.3064  -1.9812  -0.8157

          k = 0.2000 0.3464 0.0000 ( 12190 PWs)   bands (ev):

   -61.0260 -35.2849 -35.2500 -35.1495 -13.4821 -13.0748  -5.3347  -4.5287
    -4.1552  -3.6833  -2.5815  -1.6390  -1.0834

          k = 0.2000 0.4619 0.0000 ( 12201 PWs)   bands (ev):

   -61.0200 -35.3244 -35.2363 -35.1865 -13.0050 -12.8228  -5.6494  -5.2676
    -4.0874  -3.6522  -3.0811  -2.1271  -0.8545

          k = 0.2000 0.5774 0.0000 ( 12210 PWs)   bands (ev):

   -61.0177 -35.3382 -35.2311 -35.2018 -12.8015 -12.7165  -5.7831  -5.5608
    -4.2294  -3.5373  -3.1422  -2.4154  -0.6370

          k = 0.3000 0.5196 0.0000 ( 12200 PWs)   bands (ev):

   -61.0168 -35.3106 -35.2411 -35.2291 -12.7350 -12.6715  -5.6456  -5.3614
    -4.2779  -3.8179  -3.5414  -2.4996  -0.5404

     highest occupied level (ev):    -0.5404

!    total energy              =    -226.02741179 Ry
     Harris-Foulkes estimate   =    -226.02741179 Ry
     estimated scf accuracy    <          7.9E-11 Ry

     The total energy is the sum of the following terms:

     one-electron contribution =   -1047.26805750 Ry
     hartree contribution      =     524.86305150 Ry
     xc contribution           =     -77.94853989 Ry
     ewald contribution        =     374.32613411 Ry

     convergence has been achieved in  11 iterations

     negative rho (up, down):  3.262E-05 0.000E+00

     Forces acting on atoms (Ry/au):

     atom    1 type  1   force =     0.00000000    0.00000000   -0.00000465
     atom    2 type  2   force =     0.00000000   -0.00000000    0.00001754
     atom    3 type  2   force =     0.00000000    0.00000000   -0.00001289

     Total force =     0.000022     Total SCF correction =     0.000022
     SCF correction compared to forces is large: reduce conv_thr to get better values


     entering subroutine stress ...


     negative rho (up, down):  3.262E-05 0.000E+00
          total   stress  (Ry/bohr**3)                   (kbar)     P=   -0.76
  -0.00000720   0.00000000   0.00000000         -1.06      0.00      0.00
   0.00000000  -0.00000720   0.00000000          0.00     -1.06      0.00
  -0.00000000  -0.00000000  -0.00000102         -0.00     -0.00     -0.15


     bfgs converged in   4 scf cycles and   3 bfgs steps
     (criteria: energy <  1.0E-04, force <  1.0E-03)

     End of BFGS Geometry Optimization

     Final energy   =    -226.0274117939 Ry
Begin final coordinates

ATOMIC_POSITIONS (angstrom)
Mo       0.000000000   1.875085000   3.183910305
Se       1.623871000   0.937542000   4.839334061
Se       1.623871000   0.937542000   1.528479634
End final coordinates



     Writing output data file mose2_0.save
 
     init_run     :      1.41s CPU      1.75s WALL (       1 calls)
     electrons    :     53.20s CPU     57.31s WALL (       4 calls)
     update_pot   :      1.29s CPU      1.56s WALL (       3 calls)
     forces       :      2.46s CPU      2.55s WALL (       4 calls)
     stress       :      7.14s CPU      7.45s WALL (       4 calls)

     Called by init_run:
     wfcinit      :      0.16s CPU      0.17s WALL (       1 calls)
     potinit      :      0.13s CPU      0.42s WALL (       1 calls)

     Called by electrons:
     c_bands      :     24.19s CPU     24.76s WALL (      55 calls)
     sum_band     :     17.80s CPU     19.73s WALL (      55 calls)
     v_of_rho     :      0.28s CPU      0.28s WALL (      56 calls)
     newd         :     11.14s CPU     12.45s WALL (      56 calls)
     mix_rho      :      0.23s CPU      0.24s WALL (      55 calls)

     Called by c_bands:
     init_us_2    :      0.44s CPU      0.46s WALL (    1666 calls)
     ccgdiagg     :     20.46s CPU     20.92s WALL (     770 calls)
     wfcrot       :      3.50s CPU      3.59s WALL (     686 calls)

     Called by sum_band:
     sum_band:bec :      0.00s CPU      0.01s WALL (     770 calls)
     addusdens    :     15.14s CPU     17.03s WALL (      55 calls)

     Called by *cgdiagg:
     h_psi        :     17.27s CPU     17.66s WALL (   34735 calls)
     s_psi        :      2.59s CPU      2.49s WALL (   68784 calls)
     cdiaghg      :      0.07s CPU      0.10s WALL (     686 calls)

     Called by h_psi:
     add_vuspsi   :      1.29s CPU      1.31s WALL (   34735 calls)
     h_1psi       :     15.38s CPU     15.76s WALL (   34049 calls)

     General routines
     calbec       :      3.25s CPU      3.33s WALL (   69834 calls)
     fft          :      1.16s CPU      1.28s WALL (     535 calls)
     ffts         :      0.04s CPU      0.22s WALL (     111 calls)
     fftw         :     13.84s CPU     13.40s WALL (   96168 calls)
     interpolate  :      0.23s CPU      0.41s WALL (     111 calls)
     davcio       :      0.00s CPU      0.04s WALL (      14 calls)
 
     Parallel routines
     fft_scatter  :      6.60s CPU      6.52s WALL (   96814 calls)
 
     PWSCF        :  1m 6.59s CPU     1m12.96s WALL

 
   This run was terminated on:  15:20:40  26Apr2017            

=------------------------------------------------------------------------------=
   JOB DONE.
=------------------------------------------------------------------------------=
